                         Program Version 4.1.2  - RELEASE  -
|  1> ! bp86 def2-svp
|  2>
|  3> * xyzfile -2 3 geom.xyz
|  4>
|  5> %eprnmr
|  6> nuclei = all Fe {fgrad, rho}
|  7> end
|  8>
|  9>
| 10>                          ****END OF INPUT****

CARTESIAN COORDINATES (ANGSTROEM)
---------------------------------
  Fe    -0.006048    0.000584    0.000042
  O      1.660892    0.005855   -0.000247
  O     -0.545958    1.578335    0.000132
  O     -0.554251   -0.792441   -1.360507
  O     -0.554635   -0.792332    1.360581

 Total Charge           Charge          ....   -2
 Multiplicity           Mult            ....    3
 Number of Electrons    NEL             ....   60
 Basis Dimension        Dim             ....   87

ORBITAL ENERGIES
----------------
                 SPIN UP ORBITALS
  NO   OCC          E(Eh)            E(eV)
   0   1.0000    -254.466590     -6924.3880
   1   1.0000     -29.253161      -796.0190
   2   1.0000     -25.201299      -685.7622
   3   1.0000     -25.201281      -685.7617
   4   1.0000     -25.201027      -685.7548
   5   1.0000     -18.318467      -498.4708
   6   1.0000     -18.318317      -498.4667
   7   1.0000     -18.318306      -498.4664
   8   1.0000     -18.318272      -498.4655
   9   1.0000      -2.946946       -80.1905
  10   1.0000      -1.761186       -47.9243
  11   1.0000      -1.761048       -47.9205
  12   1.0000      -1.760795       -47.9137
  13   1.0000      -0.361536        -9.8379
  14   1.0000      -0.342162        -9.3107
  15   1.0000      -0.342129        -9.3098
  16   1.0000      -0.341996        -9.3062
  17   1.0000       0.081403         2.2151
  18   1.0000       0.081541         2.2188
  19   1.0000       0.082005         2.2315
  20   1.0000       0.082783         2.2526
  21   1.0000       0.083358         2.2683
  22   1.0000       0.129968         3.5366
  23   1.0000       0.164714         4.4821
  24   1.0000       0.164777         4.4838
  25   1.0000       0.164940         4.4882
  26   1.0000       0.217120         5.9081
  27   1.0000       0.217554         5.9199
  28   1.0000       0.217646         5.9224
  29   1.0000       0.265496         7.2245
  30   1.0000       0.265617         7.2278
  31   0.0000       0.329059         8.9542
  32   0.0000       0.330137         8.9835
  33   0.0000       0.330764         9.0006
  34   0.0000       0.353493         9.6190
  35   0.0000       0.674256        18.3474

                 SPIN DOWN ORBITALS
  NO   OCC          E(Eh)            E(eV)
   0   1.0000    -254.466487     -6924.3851
   1   1.0000     -29.227291      -795.3150
   2   1.0000     -25.181861      -685.2333
   3   1.0000     -25.181810      -685.2319
   4   1.0000     -25.181365      -685.2198
   5   1.0000     -18.314233      -498.3556
   6   1.0000     -18.314098      -498.3519
   7   1.0000     -18.314092      -498.3518
   8   1.0000     -18.313925      -498.3472
   9   1.0000      -2.890439       -78.6529
  10   1.0000      -1.706775       -46.4437
  11   1.0000      -1.706628       -46.4397
  12   1.0000      -1.705784       -46.4168
  13   1.0000      -0.352432        -9.5902
  14   1.0000      -0.332108        -9.0371
  15   1.0000      -0.332099        -9.0369
  16   1.0000      -0.331727        -9.0267
  17   1.0000       0.097015         2.6399
  18   1.0000       0.097148         2.6435
  19   1.0000       0.097566         2.6549
  20   1.0000       0.124005         3.3743
  21   1.0000       0.124650         3.3919
  22   1.0000       0.132388         3.6024
  23   1.0000       0.174241         4.7413
  24   1.0000       0.174333         4.7438
  25   1.0000       0.174694         4.7537
  26   1.0000       0.231782         6.3071
  27   1.0000       0.232558         6.3282
  28   1.0000       0.232619         6.3299
  29   0.0000       0.314461         8.5569
  30   0.0000       0.314744         8.5646
  31   0.0000       0.349168         9.5013
  32   0.0000       0.350217         9.5299
  33   0.0000       0.350712         9.5434

MULLIKEN ATOMIC CHARGES AND SPIN POPULATIONS
--------------------------------------------
   0 Fe:    0.512430    1.230058
   1 O :   -0.626774    0.197139
   2 O :   -0.629231    0.190302
   3 O :   -0.628192    0.191282
   4 O :   -0.628233    0.191219
Sum of atomic charges         :   -2.0000000

LOEWDIN ATOMIC CHARGES AND SPIN POPULATIONS
-------------------------------------------
   0 Fe:    0.028515    1.236482
   1 O :   -0.505391    0.195405
   2 O :   -0.508040    0.188753
   3 O :   -0.507506    0.189710
   4 O :   -0.507577    0.189649

  Mayer bond orders larger than 0.1
B(  0-Fe,  1-O ) :   1.5775 B(  0-Fe,  2-O ) :   1.5754 B(  0-Fe,  3-O ) :   1.5769
B(  0-Fe,  4-O ) :   1.5769 B(  1-O ,  2-O ) :   0.1516 B(  1-O ,  3-O ) :   0.1518
B(  1-O ,  4-O ) :   0.1518 B(  2-O ,  3-O ) :   0.1524 B(  2-O ,  4-O ) :   0.1524
B(  3-O ,  4-O ) :   0.1519

FINAL SINGLE POINT ENERGY     -1564.326158865831

DIPOLE MOMENT
-------------
                                X             Y             Z
Electronic contribution:     -0.02685       0.00105       0.00010
Nuclear contribution   :      0.01470      -0.00142      -0.00010
                        -----------------------------------------
Total Dipole Moment    :     -0.01215      -0.00037      -0.00000
                        -----------------------------------------
Magnitude (a.u.)       :      0.01216
Magnitude (Debye)      :      0.03090

Rotational constants in cm-1:     0.143060     0.142034     0.141288
Rotational constants in MHz :  4288.832755  4258.062181  4235.702110

                             ****ORCA TERMINATED NORMALLY****
TOTAL RUN TIME: 0 days 0 hours 0 minutes 5 seconds 881 msec
