                         Program Version 4.1.2  - RELEASE  -
|  1> ! bp86 def2-svp
|  2>
|  3> * xyzfile 0 1 geom.xyz
|  4>
|  5> %eprnmr
|  6> nuclei = all Fe {fgrad, rho}
|  7> end
|  8>
|  9>
| 10>                          ****END OF INPUT****

CARTESIAN COORDINATES (ANGSTROEM)
---------------------------------
  Fe     0.002211   -0.515467   -0.057041
  S      0.038176   -2.829800   -0.476282
  C      1.705782   -3.569445   -0.202375
  S     -1.658817   -0.292437   -1.553521
  S     -1.558229   -0.674178    1.639733
  S      1.609555   -0.358768   -1.743157
  S      1.628638   -0.437710    1.474907
  C     -5.501108    0.020122    0.943413
  C     -5.569128    0.188902   -0.448715
  C     -4.398291    0.107417   -1.203267
  C     -3.172211   -0.119275   -0.564830
  C     -3.086050   -0.309090    0.827952
  C     -4.284682   -0.221819    1.571627
  C      3.086004    0.047062   -0.842676
  C      3.125224    0.030246    0.561783
  C      4.280649    0.386089   -1.517541
  C      5.440821    0.699391   -0.812977
  C      5.455483    0.678770    0.590451
  C      4.293395    0.324596    1.274902
  C     -1.252725    1.463143   -2.026972
  C      1.141966    1.216466    2.186853
  C      0.599742    2.086874    1.100027
  C     -0.631752    2.197487   -0.882733
  N     -0.031758    1.442201    0.076315
  C     -0.618567    3.590922   -0.850106
  C      0.687340    3.476891    1.154912
  C      0.063584    4.247188    0.175045
  H     -6.407448    0.064990    1.541506
  H     -6.524778    0.360394   -0.935244
  H     -4.435000    0.221124   -2.284266
  H     -4.240942   -0.349651    2.650285
  H      4.285455    0.410510   -2.604316
  H      6.337377    0.968235   -1.365965
  H      6.353388    0.933202    1.146204
  H      4.287896    0.285447    2.361752
  H     -2.134418    1.964910   -2.430121
  H     -0.514172    1.329982   -2.823785
  H      1.983818    1.673642    2.709683
  H      0.356480    0.966600    2.906403
  H     -1.121572    4.140964   -1.638556
  H      1.218765    3.950336    1.974246
  H      0.111624    5.331190    0.210626
  H      1.984355   -3.498978    0.851066
  C     -0.903421   -3.860847    0.726223
  H      2.391700   -2.991848   -0.822514
  H      1.683679   -4.613242   -0.520410
  H     -0.489135   -3.730485    1.726783
  H     -0.837496   -4.903237    0.407316
  H     -1.939563   -3.525718    0.708967

 Total Charge           Charge          ....    0
 Multiplicity           Mult            ....    1
 Number of Electrons    NEL             ....  260
 Basis Dimension        Dim             ....  534

ORBITAL ENERGIES
----------------

  NO   OCC          E(Eh)            E(eV)
   0   2.0000    -254.784190     -6933.0303
   1   2.0000     -88.126660     -2398.0483
   2   2.0000     -88.123553     -2397.9638
   3   2.0000     -88.111993     -2397.6492
   4   2.0000     -88.042331     -2395.7536
   5   2.0000     -88.040456     -2395.7026
   6   2.0000     -29.534478      -803.6740
   7   2.0000     -25.488547      -693.5786
   8   2.0000     -25.487590      -693.5526
   9   2.0000     -25.484212      -693.4607
  10   2.0000     -14.060767      -382.6129
  11   2.0000      -9.973824      -271.4016
  12   2.0000      -9.973614      -271.3958
  13   2.0000      -9.954308      -270.8705
  14   2.0000      -9.954057      -270.8637
  15   2.0000      -9.941442      -270.5204
  16   2.0000      -9.937866      -270.4231
  17   2.0000      -9.937834      -270.4222
  18   2.0000      -9.935094      -270.3477
  19   2.0000      -9.934546      -270.3327
  20   2.0000      -9.933634      -270.3079
  21   2.0000      -9.932778      -270.2846
  22   2.0000      -9.932009      -270.2637
  23   2.0000      -9.931899      -270.2607
  24   2.0000      -9.920603      -269.9533
  25   2.0000      -9.918644      -269.9000
  26   2.0000      -9.913336      -269.7556
  27   2.0000      -9.910962      -269.6910
  28   2.0000      -9.909706      -269.6568
  29   2.0000      -9.909496      -269.6511
  30   2.0000      -9.907020      -269.5837
  31   2.0000      -9.906677      -269.5744
  32   2.0000      -7.717673      -210.0086
  33   2.0000      -7.714825      -209.9311
  34   2.0000      -7.703762      -209.6300
  35   2.0000      -7.636092      -207.7886
  36   2.0000      -7.634495      -207.7452
  37   2.0000      -5.745130      -156.3329
  38   2.0000      -5.742370      -156.2578
  39   2.0000      -5.741933      -156.2459
  40   2.0000      -5.738921      -156.1640
  41   2.0000      -5.735830      -156.0799
  42   2.0000      -5.732958      -156.0017
  43   2.0000      -5.731462      -155.9610
  44   2.0000      -5.728143      -155.8707
  45   2.0000      -5.721409      -155.6874
  46   2.0000      -5.664087      -154.1276
  47   2.0000      -5.662367      -154.0808
  48   2.0000      -5.658109      -153.9650
  49   2.0000      -5.656536      -153.9222
  50   2.0000      -5.655554      -153.8955
  51   2.0000      -5.653957      -153.8520
  52   2.0000      -3.221854       -87.6711
  53   2.0000      -2.042229       -55.5719
  54   2.0000      -2.040022       -55.5118
  55   2.0000      -2.032974       -55.3200
  56   2.0000      -0.888183       -24.1687
  57   2.0000      -0.785707       -21.3802
  58   2.0000      -0.781925       -21.2772
  59   2.0000      -0.759515       -20.6675
  60   2.0000      -0.745206       -20.2781
  61   2.0000      -0.734755       -19.9937
  62   2.0000      -0.730904       -19.8889
  63   2.0000      -0.705980       -19.2107
  64   2.0000      -0.686716       -18.6865
  65   2.0000      -0.684600       -18.6289
  66   2.0000      -0.670162       -18.2360
  67   2.0000      -0.655441       -17.8355
  68   2.0000      -0.634207       -17.2577
  69   2.0000      -0.623170       -16.9573
  70   2.0000      -0.607605       -16.5338
  71   2.0000      -0.598938       -16.2979
  72   2.0000      -0.590181       -16.0596
  73   2.0000      -0.565545       -15.3893
  74   2.0000      -0.561824       -15.2880
  75   2.0000      -0.550701       -14.9853
  76   2.0000      -0.531240       -14.4558
  77   2.0000      -0.529015       -14.3952
  78   2.0000      -0.512743       -13.9525
  79   2.0000      -0.506380       -13.7793
  80   2.0000      -0.479002       -13.0343
  81   2.0000      -0.463617       -12.6157
  82   2.0000      -0.453687       -12.3454
  83   2.0000      -0.439458       -11.9582
  84   2.0000      -0.429915       -11.6986
  85   2.0000      -0.428199       -11.6519
  86   2.0000      -0.415556       -11.3078
  87   2.0000      -0.411727       -11.2037
  88   2.0000      -0.407656       -11.0929
  89   2.0000      -0.403740       -10.9863
  90   2.0000      -0.398792       -10.8517
  91   2.0000      -0.397276       -10.8104
  92   2.0000      -0.395819       -10.7708
  93   2.0000      -0.390074       -10.6144
  94   2.0000      -0.388588       -10.5740
  95   2.0000      -0.385831       -10.4990
  96   2.0000      -0.377324       -10.2675
  97   2.0000      -0.370826       -10.0907
  98   2.0000      -0.367186        -9.9916
  99   2.0000      -0.355453        -9.6724
 100   2.0000      -0.352931        -9.6037
 101   2.0000      -0.350559        -9.5392
 102   2.0000      -0.350069        -9.5259
 103   2.0000      -0.345338        -9.3971
 104   2.0000      -0.336331        -9.1520
 105   2.0000      -0.332609        -9.0508
 106   2.0000      -0.330128        -8.9832
 107   2.0000      -0.319379        -8.6908
 108   2.0000      -0.309815        -8.4305
 109   2.0000      -0.305721        -8.3191
 110   2.0000      -0.302868        -8.2415
 111   2.0000      -0.294548        -8.0151
 112   2.0000      -0.292143        -7.9496
 113   2.0000      -0.286885        -7.8065
 114   2.0000      -0.285242        -7.7618
 115   2.0000      -0.270100        -7.3498
 116   2.0000      -0.250278        -6.8104
 117   2.0000      -0.248524        -6.7627
 118   2.0000      -0.247903        -6.7458
 119   2.0000      -0.246561        -6.7093
 120   2.0000      -0.233662        -6.3583
 121   2.0000      -0.225129        -6.1261
 122   2.0000      -0.222373        -6.0511
 123   2.0000      -0.220656        -6.0043
 124   2.0000      -0.197636        -5.3779
 125   2.0000      -0.181483        -4.9384
 126   2.0000      -0.166412        -4.5283
 127   2.0000      -0.151559        -4.1241
 128   2.0000      -0.150082        -4.0840
 129   2.0000      -0.127991        -3.4828
 130   0.0000      -0.080855        -2.2002
 131   0.0000      -0.071221        -1.9380
 132   0.0000      -0.064438        -1.7534
 133   0.0000      -0.056552        -1.5389
 134   0.0000      -0.049673        -1.3517

MULLIKEN ATOMIC CHARGES
-----------------------
   0 Fe:   -0.042071
   1 S :    0.004499
   2 C :   -0.125863
   3 S :    0.075756
   4 S :   -0.184193
   5 S :   -0.183616
   6 S :    0.057081
   7 C :    0.021675
   8 C :   -0.012634
   9 C :    0.013042
  10 C :   -0.094464
  11 C :    0.013066
  12 C :   -0.025442
  13 C :    0.017056
  14 C :   -0.099014
  15 C :   -0.027516
  16 C :    0.019373
  17 C :   -0.013069
  18 C :    0.014840
  19 C :   -0.024128
  20 C :   -0.005858
  21 C :    0.022785
  22 C :    0.028748
  23 N :   -0.076453
  24 C :   -0.006240
  25 C :   -0.007252
  26 C :    0.055314
  27 H :   -0.007609
  28 H :   -0.012745
  29 H :   -0.014786
  30 H :   -0.014096
  31 H :   -0.011025
  32 H :   -0.007179
  33 H :   -0.011143
  34 H :   -0.014588
  35 H :    0.060299
  36 H :    0.102541
  37 H :    0.052862
  38 H :    0.099976
  39 H :   -0.002022
  40 H :   -0.002306
  41 H :    0.011081
  42 H :    0.075918
  43 C :   -0.112931
  44 H :    0.092830
  45 H :    0.068632
  46 H :    0.076472
  47 H :    0.064500
  48 H :    0.089896
Sum of atomic charges:   -0.0000000

LOEWDIN ATOMIC CHARGES
----------------------
   0 Fe:   -0.654066
   1 S :    0.475850
   2 C :   -0.162221
   3 S :    0.544695
   4 S :    0.070422
   5 S :    0.053522
   6 S :    0.543089
   7 C :   -0.026094
   8 C :   -0.056465
   9 C :   -0.040168
  10 C :   -0.209384
  11 C :   -0.175505
  12 C :   -0.048808
  13 C :   -0.174570
  14 C :   -0.206840
  15 C :   -0.045997
  16 C :   -0.025522
  17 C :   -0.055114
  18 C :   -0.042589
  19 C :   -0.131369
  20 C :   -0.126793
  21 C :    0.011063
  22 C :    0.011230
  23 N :    0.043304
  24 C :   -0.033308
  25 C :   -0.033153
  26 C :   -0.009989
  27 H :    0.029248
  28 H :    0.026686
  29 H :    0.026629
  30 H :    0.027906
  31 H :    0.029154
  32 H :    0.029625
  33 H :    0.027262
  34 H :    0.025942
  35 H :    0.036049
  36 H :    0.045134
  37 H :    0.033056
  38 H :    0.041356
  39 H :    0.037150
  40 H :    0.037188
  41 H :    0.037207
  42 H :    0.025547
  43 C :   -0.166065
  44 H :    0.033949
  45 H :    0.029348
  46 H :    0.028976
  47 H :    0.026756
  48 H :    0.036679

  Mayer bond orders larger than 0.1
B(  0-Fe,  1-S ) :   0.6647 B(  0-Fe,  3-S ) :   0.7946 B(  0-Fe,  4-S ) :   0.8413
B(  0-Fe,  5-S ) :   0.8145 B(  0-Fe,  6-S ) :   0.7942 B(  0-Fe, 23-N ) :   0.7213
B(  1-S ,  2-C ) :   0.9711 B(  1-S , 43-C ) :   0.9517 B(  2-C , 42-H ) :   0.9595
B(  2-C , 44-H ) :   0.9537 B(  2-C , 45-H ) :   0.9615 B(  3-S , 10-C ) :   0.8749
B(  3-S , 19-C ) :   0.9227 B(  4-S , 11-C ) :   1.0936 B(  5-S , 13-C ) :   1.0750
B(  6-S , 14-C ) :   0.8779 B(  6-S , 20-C ) :   0.9103 B(  7-C ,  8-C ) :   1.3277
B(  7-C , 12-C ) :   1.4224 B(  7-C , 27-H ) :   0.9789 B(  8-C ,  9-C ) :   1.3967
B(  8-C , 28-H ) :   0.9796 B(  9-C , 10-C ) :   1.3810 B(  9-C , 29-H ) :   0.9761
B( 10-C , 11-C ) :   1.3584 B( 11-C , 12-C ) :   1.3306 B( 12-C , 30-H ) :   0.9797
B( 13-C , 14-C ) :   1.3659 B( 13-C , 15-C ) :   1.3311 B( 14-C , 18-C ) :   1.3755
B( 15-C , 16-C ) :   1.4263 B( 15-C , 31-H ) :   0.9804 B( 16-C , 17-C ) :   1.3274
B( 16-C , 32-H ) :   0.9764 B( 17-C , 18-C ) :   1.4011 B( 17-C , 33-H ) :   0.9777
B( 18-C , 34-H ) :   0.9750 B( 19-C , 22-C ) :   1.0150 B( 19-C , 35-H ) :   0.9231
B( 19-C , 36-H ) :   0.9055 B( 20-C , 21-C ) :   1.0171 B( 20-C , 37-H ) :   0.9246
B( 20-C , 38-H ) :   0.9022 B( 21-C , 23-N ) :   1.3055 B( 21-C , 25-C ) :   1.4387
B( 22-C , 23-N ) :   1.3143 B( 22-C , 24-C ) :   1.4355 B( 24-C , 26-C ) :   1.3747
B( 24-C , 39-H ) :   0.9625 B( 25-C , 26-C ) :   1.3787 B( 25-C , 40-H ) :   0.9617
B( 26-C , 41-H ) :   0.9678 B( 43-C , 46-H ) :   0.9637 B( 43-C , 47-H ) :   0.9581
B( 43-C , 48-H ) :   0.9615

FINAL SINGLE POINT ENERGY     -4121.464999590470

DIPOLE MOMENT
-------------
                                X             Y             Z
Electronic contribution:     -1.71419      -0.29814      -3.33393
Nuclear contribution   :      1.89358       1.18614       3.70599
                        -----------------------------------------
Total Dipole Moment    :      0.17939       0.88800       0.37207
                        -----------------------------------------
Magnitude (a.u.)       :      0.97936
Magnitude (Debye)      :      2.48934

Rotational constants in cm-1:     0.007572     0.003979     0.003353
Rotational constants in MHz :   226.988126   119.284921   100.518536

                             ****ORCA TERMINATED NORMALLY****
TOTAL RUN TIME: 0 days 0 hours 2 minutes 44 seconds 198 msec
