                         Program Version 4.1.2  - RELEASE  -
|  1> ! bp86 def2-svp
|  2>
|  3> * xyzfile 3 6  geom.xyz
|  4>
|  5> %eprnmr
|  6> nuclei = all Fe {fgrad, rho}
|  7> end
|  8>
|  9>
| 10>                          ****END OF INPUT****

CARTESIAN COORDINATES (ANGSTROEM)
---------------------------------
  Fe    -0.000411   -0.000246   -0.000775
  O     -0.167444    1.039129    1.718988
  H      0.366677    1.821113    1.953619
  O     -1.202644    1.288334   -0.980811
  H     -1.651846    2.054751   -0.579763
  O     -1.605608   -1.105693    0.509300
  H     -2.530881   -0.892003    0.288257
  O      0.168539   -1.041049   -1.719384
  H      0.865752   -0.926020   -2.391147
  O      1.201001   -1.287151    0.983345
  H      1.461288   -1.224386    1.921214
  O      1.604203    1.105655   -0.512009
  H      2.529380    0.891372   -0.291077
  H     -1.462647    1.230426   -1.919134
  H      1.597565    1.901203   -1.075919
  H     -0.863921    0.926491    2.391934
  H      1.650092   -2.055598    0.586009
  H     -0.365028   -1.822453   -1.957149
  H     -1.598574   -1.900879    1.073614

 Total Charge           Charge          ....    3
 Multiplicity           Mult            ....    6
 Number of Electrons    NEL             ....   83
 Basis Dimension        Dim             ....  175

ORBITAL ENERGIES
----------------
                 SPIN UP ORBITALS
  NO   OCC          E(Eh)            E(eV)
   0   1.0000    -255.464427     -6951.5405
   1   1.0000     -30.255665      -823.2985
   2   1.0000     -26.197440      -712.8686
   3   1.0000     -26.197397      -712.8674
   4   1.0000     -26.197242      -712.8632
   5   1.0000     -19.340085      -526.2705
   6   1.0000     -19.340037      -526.2692
   7   1.0000     -19.339852      -526.2641
   8   1.0000     -19.339767      -526.2618
   9   1.0000     -19.339625      -526.2580
  10   1.0000     -19.339531      -526.2554
  11   1.0000      -4.003259      -108.9342
  12   1.0000      -2.815154       -76.6042
  13   1.0000      -2.815024       -76.6007
  14   1.0000      -2.814634       -76.5901
  15   1.0000      -1.468176       -39.9511
  16   1.0000      -1.457669       -39.6652
  17   1.0000      -1.457392       -39.6577
  18   1.0000      -1.456585       -39.6357
  19   1.0000      -1.455250       -39.5994
  20   1.0000      -1.454949       -39.5912
  21   1.0000      -1.026858       -27.9422
  22   1.0000      -1.025599       -27.9080
  23   1.0000      -1.025338       -27.9009
  24   1.0000      -1.023060       -27.8389
  25   1.0000      -1.022900       -27.8345
  26   1.0000      -1.022743       -27.8303
  27   1.0000      -0.988500       -26.8985
  28   1.0000      -0.985650       -26.8209
  29   1.0000      -0.985134       -26.8069
  30   1.0000      -0.931479       -25.3468
  31   1.0000      -0.929362       -25.2892
  32   1.0000      -0.926522       -25.2120
  33   1.0000      -0.899942       -24.4887
  34   1.0000      -0.899770       -24.4840
  35   1.0000      -0.898888       -24.4600
  36   1.0000      -0.818668       -22.2771
  37   1.0000      -0.816538       -22.2191
  38   1.0000      -0.815638       -22.1946
  39   1.0000      -0.805908       -21.9299
  40   1.0000      -0.805142       -21.9090
  41   1.0000      -0.804832       -21.9006
  42   1.0000      -0.786275       -21.3956
  43   1.0000      -0.785701       -21.3800
  44   0.0000      -0.491578       -13.3765
  45   0.0000      -0.434199       -11.8151
  46   0.0000      -0.432796       -11.7770
  47   0.0000      -0.432560       -11.7705
  48   0.0000      -0.398819       -10.8524

                 SPIN DOWN ORBITALS
  NO   OCC          E(Eh)            E(eV)
   0   1.0000    -255.463836     -6951.5244
   1   1.0000     -30.177293      -821.1659
   2   1.0000     -26.138230      -711.2574
   3   1.0000     -26.138112      -711.2542
   4   1.0000     -26.138095      -711.2537
   5   1.0000     -19.336226      -526.1655
   6   1.0000     -19.336182      -526.1643
   7   1.0000     -19.335993      -526.1591
   8   1.0000     -19.335904      -526.1567
   9   1.0000     -19.335774      -526.1532
  10   1.0000     -19.335679      -526.1506
  11   1.0000      -3.825084      -104.0858
  12   1.0000      -2.640960       -71.8642
  13   1.0000      -2.640720       -71.8576
  14   1.0000      -2.640686       -71.8567
  15   1.0000      -1.461288       -39.7637
  16   1.0000      -1.450977       -39.4831
  17   1.0000      -1.450686       -39.4752
  18   1.0000      -1.449895       -39.4536
  19   1.0000      -1.448248       -39.4088
  20   1.0000      -1.447955       -39.4009
  21   1.0000      -1.021099       -27.7855
  22   1.0000      -1.019955       -27.7544
  23   1.0000      -1.019751       -27.7488
  24   1.0000      -1.019468       -27.7411
  25   1.0000      -1.019315       -27.7370
  26   1.0000      -1.019165       -27.7329
  27   1.0000      -0.976698       -26.5773
  28   1.0000      -0.939437       -25.5634
  29   1.0000      -0.938857       -25.5476
  30   1.0000      -0.922500       -25.1025
  31   1.0000      -0.920336       -25.0436
  32   1.0000      -0.917444       -24.9649
  33   1.0000      -0.820601       -22.3297
  34   1.0000      -0.819692       -22.3050
  35   1.0000      -0.818033       -22.2598
  36   1.0000      -0.808037       -21.9878
  37   1.0000      -0.805825       -21.9276
  38   1.0000      -0.804853       -21.9012
  39   0.0000      -0.719500       -19.5786
  40   0.0000      -0.718880       -19.5617
  41   0.0000      -0.718674       -19.5561
  42   0.0000      -0.664310       -18.0768
  43   0.0000      -0.664014       -18.0687

MULLIKEN ATOMIC CHARGES AND SPIN POPULATIONS
--------------------------------------------
   0 Fe:    0.931551    4.219868
   1 O :   -0.221200    0.121019
   2 H :    0.283947    0.004268
   3 O :   -0.221378    0.121155
   4 H :    0.282062    0.004120
   5 O :   -0.220944    0.121576
   6 H :    0.282047    0.004340
   7 O :   -0.220988    0.121402
   8 H :    0.282347    0.004450
   9 O :   -0.221363    0.121221
  10 H :    0.283580    0.004552
  11 O :   -0.221186    0.121331
  12 H :    0.282045    0.004328
  13 H :    0.283768    0.004581
  14 H :    0.283518    0.004454
  15 H :    0.282427    0.004491
  16 H :    0.282194    0.004118
  17 H :    0.284124    0.004287
  18 H :    0.283451    0.004438
Sum of atomic charges         :    3.0000000

LOEWDIN ATOMIC CHARGES AND SPIN POPULATIONS
-------------------------------------------
   0 Fe:    0.671664    4.142385
   1 O :    0.061499    0.131089
   2 H :    0.163682    0.005665
   3 O :    0.061511    0.131321
   4 H :    0.162491    0.005588
   5 O :    0.062295    0.131789
   6 H :    0.162617    0.005738
   7 O :    0.061742    0.131441
   8 H :    0.162844    0.005803
   9 O :    0.061475    0.131370
  10 H :    0.163485    0.005876
  11 O :    0.062100    0.131558
  12 H :    0.162594    0.005725
  13 H :    0.163689    0.005896
  14 H :    0.163520    0.005831
  15 H :    0.162927    0.005824
  16 H :    0.162576    0.005588
  17 H :    0.163850    0.005688
  18 H :    0.163439    0.005825

  Mayer bond orders larger than 0.1
B(  0-Fe,  1-O ) :   0.5679 B(  0-Fe,  3-O ) :   0.5663 B(  0-Fe,  5-O ) :   0.5658
B(  0-Fe,  7-O ) :   0.5687 B(  0-Fe,  9-O ) :   0.5664 B(  0-Fe, 11-O ) :   0.5654
B(  1-O ,  2-H ) :   0.9140 B(  1-O , 15-H ) :   0.9149 B(  3-O ,  4-H ) :   0.9152
B(  3-O , 13-H ) :   0.9138 B(  5-O ,  6-H ) :   0.9150 B(  5-O , 18-H ) :   0.9144
B(  7-O ,  8-H ) :   0.9149 B(  7-O , 17-H ) :   0.9139 B(  9-O , 10-H ) :   0.9139
B(  9-O , 16-H ) :   0.9151 B( 11-O , 12-H ) :   0.9150 B( 11-O , 14-H ) :   0.9144

FINAL SINGLE POINT ENERGY     -1720.930967907692

DIPOLE MOMENT
-------------
                                X             Y             Z
Electronic contribution:     -0.00170      -0.00275      -0.00603
Nuclear contribution   :      0.00210       0.00569       0.00566
                        -----------------------------------------
Total Dipole Moment    :      0.00040       0.00293      -0.00037
                        -----------------------------------------
Magnitude (a.u.)       :      0.00298
Magnitude (Debye)      :      0.00758

Rotational constants in cm-1:     0.053715     0.052828     0.052032
Rotational constants in MHz :  1610.325129  1583.730332  1559.895059

                             ****ORCA TERMINATED NORMALLY****
TOTAL RUN TIME: 0 days 0 hours 0 minutes 15 seconds 612 msec
