                         Program Version 4.1.2  - RELEASE  -
|  1> ! bp86 def2-svp
|  2>
|  3> * xyzfile  -3 6 geom.xyz
|  4>
|  5> %eprnmr
|  6> nuclei = all Fe {fgrad, rho}
|  7> end
|  8>
|  9>
| 10>                          ****END OF INPUT****

CARTESIAN COORDINATES (ANGSTROEM)
---------------------------------
  Fe     0.000037    0.000019    0.000000
  Cl     2.445792   -0.000009   -0.000009
  Cl    -2.445812   -0.000009    0.000009
  Cl    -0.000008    2.445861    0.000004
  Cl    -0.000008   -2.445864   -0.000004
  Cl    -0.000009    0.000006    2.445920
  Cl     0.000008   -0.000003   -2.445920

 Total Charge           Charge          ....   -3
 Multiplicity           Mult            ....    6
 Number of Electrons    NEL             ....  131
 Basis Dimension        Dim             ....  139

ORBITAL ENERGIES
----------------
                 SPIN UP ORBITALS
  NO   OCC          E(Eh)            E(eV)
   0   1.0000    -254.436061     -6923.5572
   1   1.0000    -100.159591     -2725.4810
   2   1.0000    -100.159470     -2725.4777
   3   1.0000    -100.159462     -2725.4775
   4   1.0000    -100.159457     -2725.4774
   5   1.0000    -100.159454     -2725.4773
   6   1.0000    -100.159450     -2725.4772
   7   1.0000     -29.222559      -795.1862
   8   1.0000     -25.165079      -684.7766
   9   1.0000     -25.165078      -684.7766
  10   1.0000     -25.165078      -684.7766
  11   1.0000      -8.642826      -235.1833
  12   1.0000      -8.642734      -235.1807
  13   1.0000      -8.642726      -235.1805
  14   1.0000      -8.642716      -235.1803
  15   1.0000      -8.642713      -235.1802
  16   1.0000      -8.642708      -235.1800
  17   1.0000      -6.469773      -176.0515
  18   1.0000      -6.469765      -176.0512
  19   1.0000      -6.469760      -176.0511
  20   1.0000      -6.469758      -176.0511
  21   1.0000      -6.469758      -176.0511
  22   1.0000      -6.469747      -176.0508
  23   1.0000      -6.465063      -175.9233
  24   1.0000      -6.465061      -175.9233
  25   1.0000      -6.465056      -175.9231
  26   1.0000      -6.465044      -175.9228
  27   1.0000      -6.465043      -175.9228
  28   1.0000      -6.465039      -175.9227
  29   1.0000      -6.465039      -175.9227
  30   1.0000      -6.465034      -175.9225
  31   1.0000      -6.465034      -175.9225
  32   1.0000      -6.465020      -175.9221
  33   1.0000      -6.465017      -175.9221
  34   1.0000      -6.465015      -175.9220
  35   1.0000      -2.965741       -80.7019
  36   1.0000      -1.777723       -48.3743
  37   1.0000      -1.777723       -48.3743
  38   1.0000      -1.777723       -48.3743
  39   1.0000      -0.216749        -5.8980
  40   1.0000      -0.201242        -5.4761
  41   1.0000      -0.201235        -5.4759
  42   1.0000      -0.201229        -5.4757
  43   1.0000      -0.197129        -5.3642
  44   1.0000      -0.197123        -5.3640
  45   1.0000       0.116247         3.1632
  46   1.0000       0.116253         3.1634
  47   1.0000       0.127875         3.4797
  48   1.0000       0.127877         3.4797
  49   1.0000       0.127879         3.4798
  50   1.0000       0.134555         3.6614
  51   1.0000       0.181881         4.9492
  52   1.0000       0.181884         4.9493
  53   1.0000       0.181887         4.9494
  54   1.0000       0.220892         6.0108
  55   1.0000       0.220894         6.0108
  56   1.0000       0.220896         6.0109
  57   1.0000       0.236389         6.4325
  58   1.0000       0.236391         6.4325
  59   1.0000       0.236393         6.4326
  60   1.0000       0.238698         6.4953
  61   1.0000       0.238699         6.4953
  62   1.0000       0.238699         6.4953
  63   1.0000       0.252848         6.8804
  64   1.0000       0.252849         6.8804
  65   1.0000       0.252850         6.8804
  66   1.0000       0.263534         7.1711
  67   1.0000       0.263538         7.1712
  68   0.0000       0.463857        12.6222
  69   0.0000       0.542182        14.7535
  70   0.0000       0.648425        17.6445
  71   0.0000       0.648437        17.6449
  72   0.0000       0.648449        17.6452

                 SPIN DOWN ORBITALS
  NO   OCC          E(Eh)            E(eV)
   0   1.0000    -254.435467     -6923.5411
   1   1.0000    -100.158566     -2725.4532
   2   1.0000    -100.158445     -2725.4498
   3   1.0000    -100.158437     -2725.4496
   4   1.0000    -100.158432     -2725.4495
   5   1.0000    -100.158430     -2725.4494
   6   1.0000    -100.158426     -2725.4493
   7   1.0000     -29.148838      -793.1802
   8   1.0000     -25.109364      -683.2605
   9   1.0000     -25.109364      -683.2605
  10   1.0000     -25.109363      -683.2605
  11   1.0000      -8.641832      -235.1562
  12   1.0000      -8.641740      -235.1537
  13   1.0000      -8.641732      -235.1535
  14   1.0000      -8.641723      -235.1532
  15   1.0000      -8.641719      -235.1531
  16   1.0000      -8.641714      -235.1530
  17   1.0000      -6.467796      -175.9977
  18   1.0000      -6.467787      -175.9974
  19   1.0000      -6.467782      -175.9973
  20   1.0000      -6.467780      -175.9973
  21   1.0000      -6.467780      -175.9972
  22   1.0000      -6.467769      -175.9969
  23   1.0000      -6.464021      -175.8949
  24   1.0000      -6.464019      -175.8949
  25   1.0000      -6.464014      -175.8948
  26   1.0000      -6.464002      -175.8944
  27   1.0000      -6.464001      -175.8944
  28   1.0000      -6.463997      -175.8943
  29   1.0000      -6.463997      -175.8943
  30   1.0000      -6.463992      -175.8942
  31   1.0000      -6.463992      -175.8942
  32   1.0000      -6.463978      -175.8938
  33   1.0000      -6.463975      -175.8937
  34   1.0000      -6.463973      -175.8937
  35   1.0000      -2.796832       -76.1057
  36   1.0000      -1.612365       -43.8747
  37   1.0000      -1.612365       -43.8747
  38   1.0000      -1.612365       -43.8747
  39   1.0000      -0.210483        -5.7275
  40   1.0000      -0.195302        -5.3144
  41   1.0000      -0.195296        -5.3143
  42   1.0000      -0.195290        -5.3141
  43   1.0000      -0.190610        -5.1868
  44   1.0000      -0.190604        -5.1866
  45   1.0000       0.146307         3.9812
  46   1.0000       0.186906         5.0860
  47   1.0000       0.186915         5.0862
  48   1.0000       0.189122         5.1463
  49   1.0000       0.189125         5.1464
  50   1.0000       0.189128         5.1464
  51   1.0000       0.202655         5.5145
  52   1.0000       0.202659         5.5146
  53   1.0000       0.202664         5.5148
  54   1.0000       0.240558         6.5459
  55   1.0000       0.240559         6.5459
  56   1.0000       0.240561         6.5460
  57   1.0000       0.243809         6.6344
  58   1.0000       0.243810         6.6344
  59   1.0000       0.243810         6.6344
  60   1.0000       0.257136         6.9970
  61   1.0000       0.257137         6.9971
  62   1.0000       0.257138         6.9971
  63   0.0000       0.306936         8.3522
  64   0.0000       0.306936         8.3522
  65   0.0000       0.306937         8.3522
  66   0.0000       0.338618         9.2143
  67   0.0000       0.338625         9.2145

MULLIKEN ATOMIC CHARGES AND SPIN POPULATIONS
--------------------------------------------
   0 Fe:    0.633388    4.095163
   1 Cl:   -0.605521    0.150819
   2 Cl:   -0.605555    0.150810
   3 Cl:   -0.605558    0.150807
   4 Cl:   -0.605572    0.150804
   5 Cl:   -0.605590    0.150798
   6 Cl:   -0.605590    0.150798
Sum of atomic charges         :   -3.0000000

LOEWDIN ATOMIC CHARGES AND SPIN POPULATIONS
-------------------------------------------
   0 Fe:    0.131832    4.031376
   1 Cl:   -0.521913    0.161453
   2 Cl:   -0.521961    0.161441
   3 Cl:   -0.521962    0.161439
   4 Cl:   -0.521983    0.161435
   5 Cl:   -0.522006    0.161428
   6 Cl:   -0.522006    0.161428

  Mayer bond orders larger than 0.1
B(  0-Fe,  1-Cl) :   0.6330 B(  0-Fe,  2-Cl) :   0.6329 B(  0-Fe,  3-Cl) :   0.6329
B(  0-Fe,  4-Cl) :   0.6329 B(  0-Fe,  5-Cl) :   0.6329 B(  0-Fe,  6-Cl) :   0.6329

FINAL SINGLE POINT ENERGY     -4024.400829565428

DIPOLE MOMENT
-------------
                                X             Y             Z
Electronic contribution:      0.00027       0.00013      -0.00000
Nuclear contribution   :     -0.00005      -0.00003       0.00000
                        -----------------------------------------
Total Dipole Moment    :      0.00022       0.00010      -0.00000
                        -----------------------------------------
Magnitude (a.u.)       :      0.00025
Magnitude (Debye)      :      0.00062

Rotational constants in cm-1:     0.019872     0.019871     0.019871
Rotational constants in MHz :   595.732724   595.718412   595.703594

                             ****ORCA TERMINATED NORMALLY****
TOTAL RUN TIME: 0 days 0 hours 0 minutes 6 seconds 717 msec
