                         Program Version 4.1.2  - RELEASE  -
|  1> ! bp86 def2-svp
|  2>
|  3> * xyzfile  -1 6 geom.xyz
|  4>
|  5> %eprnmr
|  6> nuclei = all Fe {fgrad, rho}
|  7> end
|  8>
|  9>
| 10>                          ****END OF INPUT****

CARTESIAN COORDINATES (ANGSTROEM)
---------------------------------
  Fe     0.002291    0.001525   -0.000013
  Cl     2.234628   -0.003950    0.000015
  Cl    -0.749004    2.103068    0.000006
  Cl    -0.743967   -1.050327   -1.821818
  Cl    -0.743948   -1.050316    1.821811

 Total Charge           Charge          ....   -1
 Multiplicity           Mult            ....    6
 Number of Electrons    NEL             ....   95
 Basis Dimension        Dim             ....  103

ORBITAL ENERGIES
----------------
                 SPIN UP ORBITALS
  NO   OCC          E(Eh)            E(eV)
   0   1.0000    -254.737341     -6931.7554
   1   1.0000    -100.507066     -2734.9363
   2   1.0000    -100.506976     -2734.9339
   3   1.0000    -100.506615     -2734.9240
   4   1.0000    -100.506560     -2734.9225
   5   1.0000     -29.527021      -803.4711
   6   1.0000     -25.469668      -693.0649
   7   1.0000     -25.469659      -693.0647
   8   1.0000     -25.469641      -693.0642
   9   1.0000      -8.990974      -244.6568
  10   1.0000      -8.990909      -244.6551
  11   1.0000      -8.990650      -244.6480
  12   1.0000      -8.990605      -244.6468
  13   1.0000      -6.817732      -185.5199
  14   1.0000      -6.817654      -185.5178
  15   1.0000      -6.817440      -185.5120
  16   1.0000      -6.817431      -185.5117
  17   1.0000      -6.813533      -185.4056
  18   1.0000      -6.813433      -185.4029
  19   1.0000      -6.813432      -185.4029
  20   1.0000      -6.813425      -185.4027
  21   1.0000      -6.813163      -185.3956
  22   1.0000      -6.813159      -185.3955
  23   1.0000      -6.813047      -185.3924
  24   1.0000      -6.813042      -185.3923
  25   1.0000      -3.273530       -89.0773
  26   1.0000      -2.086729       -56.7828
  27   1.0000      -2.086621       -56.7798
  28   1.0000      -2.086536       -56.7775
  29   1.0000      -0.556985       -15.1563
  30   1.0000      -0.547090       -14.8871
  31   1.0000      -0.546991       -14.8844
  32   1.0000      -0.546957       -14.8835
  33   1.0000      -0.206463        -5.6181
  34   1.0000      -0.206419        -5.6169
  35   1.0000      -0.206296        -5.6136
  36   1.0000      -0.193207        -5.2574
  37   1.0000      -0.193112        -5.2548
  38   1.0000      -0.191382        -5.2078
  39   1.0000      -0.136198        -3.7061
  40   1.0000      -0.136136        -3.7044
  41   1.0000      -0.136058        -3.7023
  42   1.0000      -0.098011        -2.6670
  43   1.0000      -0.097969        -2.6659
  44   1.0000      -0.097905        -2.6641
  45   1.0000      -0.093938        -2.5562
  46   1.0000      -0.093929        -2.5559
  47   1.0000      -0.072950        -1.9851
  48   1.0000      -0.072827        -1.9817
  49   1.0000      -0.072589        -1.9753
  50   0.0000       0.158059         4.3010
  51   0.0000       0.248398         6.7592
  52   0.0000       0.298473         8.1219
  53   0.0000       0.298644         8.1265
  54   0.0000       0.299542         8.1510

                 SPIN DOWN ORBITALS
  NO   OCC          E(Eh)            E(eV)
   0   1.0000    -254.736661     -6931.7369
   1   1.0000    -100.505358     -2734.8898
   2   1.0000    -100.505270     -2734.8874
   3   1.0000    -100.504903     -2734.8775
   4   1.0000    -100.504847     -2734.8759
   5   1.0000     -29.456964      -801.5647
   6   1.0000     -25.416647      -691.6221
   7   1.0000     -25.416641      -691.6220
   8   1.0000     -25.416628      -691.6216
   9   1.0000      -8.989334      -244.6122
  10   1.0000      -8.989270      -244.6105
  11   1.0000      -8.989006      -244.6033
  12   1.0000      -8.988961      -244.6021
  13   1.0000      -6.815253      -185.4525
  14   1.0000      -6.815172      -185.4503
  15   1.0000      -6.814945      -185.4441
  16   1.0000      -6.814937      -185.4439
  17   1.0000      -6.811385      -185.3472
  18   1.0000      -6.811291      -185.3446
  19   1.0000      -6.811288      -185.3446
  20   1.0000      -6.811280      -185.3444
  21   1.0000      -6.811012      -185.3371
  22   1.0000      -6.811008      -185.3369
  23   1.0000      -6.810900      -185.3340
  24   1.0000      -6.810896      -185.3339
  25   1.0000      -3.113342       -84.7183
  26   1.0000      -1.930066       -52.5198
  27   1.0000      -1.929970       -52.5171
  28   1.0000      -1.929896       -52.5151
  29   1.0000      -0.546874       -14.8812
  30   1.0000      -0.536740       -14.6054
  31   1.0000      -0.536617       -14.6021
  32   1.0000      -0.536568       -14.6007
  33   1.0000      -0.176565        -4.8046
  34   1.0000      -0.149556        -4.0696
  35   1.0000      -0.149501        -4.0681
  36   1.0000      -0.149449        -4.0667
  37   1.0000      -0.123813        -3.3691
  38   1.0000      -0.123692        -3.3658
  39   1.0000      -0.118006        -3.2111
  40   1.0000      -0.117923        -3.2088
  41   1.0000      -0.117836        -3.2065
  42   1.0000      -0.089076        -2.4239
  43   1.0000      -0.089051        -2.4232
  44   1.0000      -0.088967        -2.4209
  45   0.0000      -0.009080        -0.2471
  46   0.0000      -0.009075        -0.2469
  47   0.0000       0.007975         0.2170
  48   0.0000       0.007982         0.2172
  49   0.0000       0.008325         0.2265

MULLIKEN ATOMIC CHARGES AND SPIN POPULATIONS
--------------------------------------------
   0 Fe:    0.507504    3.963562
   1 Cl:   -0.377255    0.258406
   2 Cl:   -0.377163    0.258812
   3 Cl:   -0.376543    0.259608
   4 Cl:   -0.376543    0.259613
Sum of atomic charges         :   -1.0000000

LOEWDIN ATOMIC CHARGES AND SPIN POPULATIONS
-------------------------------------------
   0 Fe:    0.016498    3.899785
   1 Cl:   -0.254571    0.274374
   2 Cl:   -0.254171    0.274810
   3 Cl:   -0.253878    0.275513
   4 Cl:   -0.253878    0.275518

  Mayer bond orders larger than 0.1
B(  0-Fe,  1-Cl) :   1.0057 B(  0-Fe,  2-Cl) :   1.0059 B(  0-Fe,  3-Cl) :   1.0066
B(  0-Fe,  4-Cl) :   1.0066

FINAL SINGLE POINT ENERGY     -3104.455086862006

DIPOLE MOMENT
-------------
                                X             Y             Z
Electronic contribution:      0.00744       0.00238      -0.00004
Nuclear contribution   :     -0.00303      -0.00202       0.00002
                        -----------------------------------------
Total Dipole Moment    :      0.00441       0.00036      -0.00002
                        -----------------------------------------
Magnitude (a.u.)       :      0.00443
Magnitude (Debye)      :      0.01125

Rotational constants in cm-1:     0.035868     0.035776     0.035724
Rotational constants in MHz :  1075.295541  1072.541011  1070.986462

                             ****ORCA TERMINATED NORMALLY****
TOTAL RUN TIME: 0 days 0 hours 0 minutes 4 seconds 593 msec
