                         Program Version 4.1.2  - RELEASE  -
|  1> ! bp86 def2-svp
|  2>
|  3> * xyzfile 0 6 geom.xyz
|  4>
|  5> %eprnmr
|  6> nuclei = all Fe {fgrad, rho}
|  7> end
|  8>
|  9>
| 10>                          ****END OF INPUT****

CARTESIAN COORDINATES (ANGSTROEM)
---------------------------------
  Fe    -0.015751    0.097016    0.024342
  N     -1.502201   -1.206421    0.672424
  C     -2.866178   -0.973409    0.699710
  C     -3.572989   -2.221299    0.836411
  C     -2.632557   -3.213073    0.869505
  C     -1.343708   -2.576017    0.778822
  C     -0.118851   -3.238202    0.822875
  C      1.139470   -2.642334    0.791467
  C      2.391792   -3.351168    0.834592
  C      3.385632   -2.413922    0.779712
  C      2.746473   -1.125382    0.685160
  N      1.371738   -1.281559    0.707769
  C      3.412778    0.093247    0.574802
  C      2.812743    1.344536    0.419667
  C      3.518445    2.599433    0.362367
  C      2.575770    3.581606    0.226325
  C      1.291620    2.930388    0.203234
  N      1.451314    1.561944    0.317617
  C      0.067506    3.592601    0.137459
  C     -1.189793    2.996163    0.210994
  C     -2.438382    3.714419    0.244894
  C     -3.429157    2.783244    0.390718
  C     -2.788828    1.493389    0.446157
  N     -1.419040    1.635715    0.325026
  C     -3.460732    0.283502    0.611610
  O      0.035224   -0.218462   -1.850449
  O      0.496657   -2.336474   -2.486053
  C      0.226723   -1.165925   -2.759219
  C      0.082527   -0.631621   -4.176172
  H     -4.497258    2.941576    0.474441
  H     -2.533998    4.790765    0.173627
  H     -4.650030   -2.315141    0.897596
  H     -2.783655   -4.281284    0.959919
  H      2.489109   -4.427427    0.902778
  H      4.457354   -2.568995    0.781610
  H      2.721524    4.652365    0.154128
  H      4.593209    2.706809    0.435038
  H      0.831993    0.150314   -4.337039
  H     -0.902476   -0.169544   -4.297962
  H      0.216357   -1.421138   -4.916522
  H     -0.151199   -4.321364    0.892514
  H     -4.544017    0.328298    0.675175
  H      4.498012    0.067082    0.603893
  H      0.098512    4.675939    0.064020

 Total Charge           Charge          ....    0
 Multiplicity           Mult            ....    6
 Number of Electrons    NEL             ....  217
 Basis Dimension        Dim             ....  498

ORBITAL ENERGIES
----------------
                 SPIN UP ORBITALS
  NO   OCC          E(Eh)            E(eV)
   0   1.0000    -254.885514     -6935.7875
   1   1.0000     -29.676355      -807.5347
   2   1.0000     -25.620070      -697.1576
   3   1.0000     -25.619404      -697.1394
   4   1.0000     -25.616281      -697.0544
   5   1.0000     -18.773852      -510.8625
   6   1.0000     -18.736393      -509.8432
   7   1.0000     -14.025801      -381.6614
   8   1.0000     -14.025763      -381.6604
   9   1.0000     -14.025740      -381.6598
  10   1.0000     -14.025110      -381.6426
  11   1.0000     -10.005517      -272.2640
  12   1.0000      -9.955459      -270.9018
  13   1.0000      -9.955268      -270.8966
  14   1.0000      -9.955206      -270.8949
  15   1.0000      -9.955110      -270.8923
  16   1.0000      -9.954966      -270.8884
  17   1.0000      -9.954568      -270.8776
  18   1.0000      -9.953941      -270.8605
  19   1.0000      -9.953088      -270.8373
  20   1.0000      -9.932162      -270.2679
  21   1.0000      -9.931934      -270.2617
  22   1.0000      -9.931906      -270.2609
  23   1.0000      -9.929642      -270.1993
  24   1.0000      -9.924075      -270.0478
  25   1.0000      -9.924021      -270.0463
  26   1.0000      -9.923760      -270.0392
  27   1.0000      -9.923676      -270.0369
  28   1.0000      -9.923423      -270.0301
  29   1.0000      -9.922855      -270.0146
  30   1.0000      -9.921806      -269.9861
  31   1.0000      -9.921086      -269.9665
  32   1.0000      -9.901128      -269.4234
  33   1.0000      -3.423157       -93.1488
  34   1.0000      -2.238555       -60.9142
  35   1.0000      -2.237170       -60.8765
  36   1.0000      -2.230587       -60.6973
  37   1.0000      -0.944831       -25.7102
  38   1.0000      -0.885169       -24.0867
  39   1.0000      -0.877235       -23.8708
  40   1.0000      -0.876404       -23.8482
  41   1.0000      -0.868165       -23.6240
  42   1.0000      -0.862608       -23.4728
  43   1.0000      -0.745912       -20.2973
  44   1.0000      -0.721558       -19.6346
  45   1.0000      -0.721047       -19.6207
  46   1.0000      -0.703476       -19.1425
  47   1.0000      -0.697843       -18.9893
  48   1.0000      -0.697215       -18.9722
  49   1.0000      -0.693921       -18.8825
  50   1.0000      -0.676368       -18.4049
  51   1.0000      -0.652675       -17.7602
  52   1.0000      -0.645986       -17.5782
  53   1.0000      -0.597267       -16.2525
  54   1.0000      -0.596922       -16.2431
  55   1.0000      -0.544844       -14.8260
  56   1.0000      -0.527065       -14.3422
  57   1.0000      -0.524004       -14.2589
  58   1.0000      -0.523458       -14.2440
  59   1.0000      -0.521741       -14.1973
  60   1.0000      -0.499805       -13.6004
  61   1.0000      -0.497434       -13.5359
  62   1.0000      -0.487065       -13.2537
  63   1.0000      -0.478134       -13.0107
  64   1.0000      -0.477516       -12.9939
  65   1.0000      -0.472366       -12.8537
  66   1.0000      -0.454144       -12.3579
  67   1.0000      -0.453763       -12.3475
  68   1.0000      -0.410892       -11.1809
  69   1.0000      -0.407323       -11.0838
  70   1.0000      -0.400500       -10.8982
  71   1.0000      -0.396181       -10.7806
  72   1.0000      -0.395134       -10.7521
  73   1.0000      -0.386977       -10.5302
  74   1.0000      -0.386811       -10.5257
  75   1.0000      -0.384336       -10.4583
  76   1.0000      -0.383209       -10.4276
  77   1.0000      -0.381346       -10.3770
  78   1.0000      -0.377425       -10.2703
  79   1.0000      -0.377032       -10.2596
  80   1.0000      -0.373499       -10.1634
  81   1.0000      -0.361490        -9.8366
  82   1.0000      -0.360838        -9.8189
  83   1.0000      -0.356765        -9.7081
  84   1.0000      -0.355562        -9.6753
  85   1.0000      -0.351685        -9.5698
  86   1.0000      -0.344070        -9.3626
  87   1.0000      -0.343328        -9.3424
  88   1.0000      -0.341359        -9.2888
  89   1.0000      -0.336226        -9.1492
  90   1.0000      -0.335056        -9.1173
  91   1.0000      -0.333996        -9.0885
  92   1.0000      -0.329076        -8.9546
  93   1.0000      -0.315832        -8.5942
  94   1.0000      -0.315153        -8.5757
  95   1.0000      -0.302687        -8.2365
  96   1.0000      -0.293507        -7.9867
  97   1.0000      -0.281538        -7.6610
  98   1.0000      -0.275034        -7.4841
  99   1.0000      -0.265636        -7.2283
 100   1.0000      -0.265011        -7.2113
 101   1.0000      -0.244658        -6.6575
 102   1.0000      -0.233270        -6.3476
 103   1.0000      -0.229692        -6.2502
 104   1.0000      -0.228305        -6.2125
 105   1.0000      -0.227038        -6.1780
 106   1.0000      -0.217571        -5.9204
 107   1.0000      -0.197582        -5.3765
 108   1.0000      -0.194928        -5.3043
 109   1.0000      -0.184537        -5.0215
 110   1.0000      -0.183227        -4.9859
 111   0.0000      -0.116222        -3.1626
 112   0.0000      -0.115507        -3.1431
 113   0.0000      -0.067248        -1.8299
 114   0.0000      -0.002653        -0.0722
 115   0.0000      -0.000534        -0.0145

                 SPIN DOWN ORBITALS
  NO   OCC          E(Eh)            E(eV)
   0   1.0000    -254.884859     -6935.7696
   1   1.0000     -29.602968      -805.5377
   2   1.0000     -25.563729      -695.6244
   3   1.0000     -25.563377      -695.6149
   4   1.0000     -25.562130      -695.5809
   5   1.0000     -18.766810      -510.6709
   6   1.0000     -18.734581      -509.7939
   7   1.0000     -14.022866      -381.5816
   8   1.0000     -14.022807      -381.5800
   9   1.0000     -14.022567      -381.5734
  10   1.0000     -14.021750      -381.5512
  11   1.0000     -10.005569      -272.2654
  12   1.0000      -9.955354      -270.8989
  13   1.0000      -9.955175      -270.8941
  14   1.0000      -9.955102      -270.8921
  15   1.0000      -9.955007      -270.8895
  16   1.0000      -9.954874      -270.8859
  17   1.0000      -9.954458      -270.8746
  18   1.0000      -9.953789      -270.8564
  19   1.0000      -9.952931      -270.8330
  20   1.0000      -9.931867      -270.2598
  21   1.0000      -9.931673      -270.2546
  22   1.0000      -9.931653      -270.2540
  23   1.0000      -9.929415      -270.1931
  24   1.0000      -9.923910      -270.0433
  25   1.0000      -9.923867      -270.0421
  26   1.0000      -9.923594      -270.0347
  27   1.0000      -9.923524      -270.0328
  28   1.0000      -9.923209      -270.0243
  29   1.0000      -9.922688      -270.0101
  30   1.0000      -9.921594      -269.9803
  31   1.0000      -9.920915      -269.9618
  32   1.0000      -9.900843      -269.4156
  33   1.0000      -3.255527       -88.5874
  34   1.0000      -2.072598       -56.3982
  35   1.0000      -2.071264       -56.3620
  36   1.0000      -2.070456       -56.3400
  37   1.0000      -0.937780       -25.5183
  38   1.0000      -0.882299       -24.0086
  39   1.0000      -0.874436       -23.7946
  40   1.0000      -0.873553       -23.7706
  41   1.0000      -0.865208       -23.5435
  42   1.0000      -0.853738       -23.2314
  43   1.0000      -0.745239       -20.2790
  44   1.0000      -0.720891       -19.6164
  45   1.0000      -0.720366       -19.6022
  46   1.0000      -0.701511       -19.0891
  47   1.0000      -0.695929       -18.9372
  48   1.0000      -0.695294       -18.9199
  49   1.0000      -0.691780       -18.8243
  50   1.0000      -0.675461       -18.3802
  51   1.0000      -0.652041       -17.7429
  52   1.0000      -0.644355       -17.5338
  53   1.0000      -0.596615       -16.2347
  54   1.0000      -0.596269       -16.2253
  55   1.0000      -0.544036       -14.8040
  56   1.0000      -0.526308       -14.3216
  57   1.0000      -0.522769       -14.2253
  58   1.0000      -0.522219       -14.2103
  59   1.0000      -0.519756       -14.1433
  60   1.0000      -0.498605       -13.5677
  61   1.0000      -0.493282       -13.4229
  62   1.0000      -0.475846       -12.9484
  63   1.0000      -0.475213       -12.9312
  64   1.0000      -0.475011       -12.9257
  65   1.0000      -0.467477       -12.7207
  66   1.0000      -0.453331       -12.3358
  67   1.0000      -0.452953       -12.3255
  68   1.0000      -0.409807       -11.1514
  69   1.0000      -0.401318       -10.9204
  70   1.0000      -0.399114       -10.8605
  71   1.0000      -0.392465       -10.6795
  72   1.0000      -0.390391       -10.6231
  73   1.0000      -0.386475       -10.5165
  74   1.0000      -0.386272       -10.5110
  75   1.0000      -0.382824       -10.4172
  76   1.0000      -0.379179       -10.3180
  77   1.0000      -0.378404       -10.2969
  78   1.0000      -0.373112       -10.1529
  79   1.0000      -0.372802       -10.1444
  80   1.0000      -0.360554        -9.8112
  81   1.0000      -0.357522        -9.7287
  82   1.0000      -0.356846        -9.7103
  83   1.0000      -0.350244        -9.5306
  84   1.0000      -0.341791        -9.3006
  85   1.0000      -0.340840        -9.2747
  86   1.0000      -0.340551        -9.2669
  87   1.0000      -0.340032        -9.2527
  88   1.0000      -0.335614        -9.1325
  89   1.0000      -0.333650        -9.0791
  90   1.0000      -0.316936        -8.6243
  91   1.0000      -0.302228        -8.2240
  92   1.0000      -0.299803        -8.1581
  93   1.0000      -0.290719        -7.9109
  94   1.0000      -0.290388        -7.9019
  95   1.0000      -0.264799        -7.2056
  96   1.0000      -0.264492        -7.1972
  97   1.0000      -0.254394        -6.9224
  98   1.0000      -0.248002        -6.7485
  99   1.0000      -0.242353        -6.5948
 100   1.0000      -0.228812        -6.2263
 101   1.0000      -0.227003        -6.1771
 102   1.0000      -0.225632        -6.1398
 103   1.0000      -0.196811        -5.3555
 104   1.0000      -0.194765        -5.2998
 105   1.0000      -0.192233        -5.2309
 106   0.0000      -0.164829        -4.4852
 107   0.0000      -0.148217        -4.0332
 108   0.0000      -0.146914        -3.9977
 109   0.0000      -0.120762        -3.2861
 110   0.0000      -0.112348        -3.0571

MULLIKEN ATOMIC CHARGES AND SPIN POPULATIONS
--------------------------------------------
   0 Fe:    0.818862    4.098368
   1 N :   -0.276692    0.099785
   2 C :    0.137421   -0.000289
   3 C :   -0.012709    0.013517
   4 C :   -0.006119    0.008946
   5 C :    0.130929    0.003530
   6 C :   -0.040209    0.019495
   7 C :    0.148620    0.003295
   8 C :   -0.000260    0.009633
   9 C :   -0.011365    0.013190
  10 C :    0.139434   -0.000327
  11 N :   -0.275696    0.107813
  12 C :   -0.071961    0.021348
  13 C :    0.134867    0.000715
  14 C :   -0.013018    0.008986
  15 C :   -0.014158    0.010048
  16 C :    0.135274   -0.000569
  17 N :   -0.276967    0.092065
  18 C :   -0.074800    0.024601
  19 C :    0.136390   -0.000368
  20 C :   -0.014457    0.008918
  21 C :   -0.013091    0.008321
  22 C :    0.131735    0.000694
  23 N :   -0.275293    0.087883
  24 C :   -0.073790    0.021660
  25 O :   -0.369508    0.245822
  26 O :   -0.218227    0.079566
  27 C :    0.113538   -0.006962
  28 C :   -0.029538    0.013882
  29 H :   -0.007931    0.000921
  30 H :   -0.008041    0.000882
  31 H :   -0.007968    0.000798
  32 H :   -0.006504    0.000923
  33 H :   -0.006531    0.000911
  34 H :   -0.007444    0.000827
  35 H :   -0.007811    0.000903
  36 H :   -0.007873    0.000916
  37 H :    0.051325   -0.000631
  38 H :    0.048028   -0.000564
  39 H :    0.037857    0.003877
  40 H :   -0.008912   -0.000794
  41 H :   -0.009382   -0.000802
  42 H :   -0.008338   -0.000799
  43 H :   -0.009686   -0.000936
Sum of atomic charges         :   -0.0000000

LOEWDIN ATOMIC CHARGES AND SPIN POPULATIONS
-------------------------------------------
   0 Fe:    0.535622    4.005961
   1 N :   -0.093346    0.116473
   2 C :    0.011875    0.005317
   3 C :   -0.032646    0.011134
   4 C :   -0.028504    0.007944
   5 C :    0.016477    0.007794
   6 C :   -0.021672    0.014719
   7 C :    0.022269    0.007914
   8 C :   -0.022950    0.008370
   9 C :   -0.030132    0.010895
  10 C :    0.015156    0.005611
  11 N :   -0.089547    0.123993
  12 C :   -0.037014    0.015934
  13 C :    0.011665    0.005345
  14 C :   -0.033656    0.007618
  15 C :   -0.033652    0.008442
  16 C :    0.010623    0.004497
  17 N :   -0.095968    0.109233
  18 C :   -0.037720    0.018329
  19 C :    0.011081    0.004370
  20 C :   -0.033984    0.007513
  21 C :   -0.033845    0.007067
  22 C :    0.010799    0.005016
  23 N :   -0.098314    0.105331
  24 C :   -0.038120    0.016268
  25 O :   -0.197723    0.255519
  26 O :   -0.182069    0.075509
  27 C :    0.046464    0.005896
  28 C :   -0.093820    0.012040
  29 H :    0.030798    0.000770
  30 H :    0.030803    0.000759
  31 H :    0.030957    0.000851
  32 H :    0.031839    0.000799
  33 H :    0.032209    0.000817
  34 H :    0.031102    0.000859
  35 H :    0.030853    0.000801
  36 H :    0.030889    0.000797
  37 H :    0.045968   -0.000032
  38 H :    0.044396    0.000063
  39 H :    0.035045    0.003039
  40 H :    0.043244    0.000069
  41 H :    0.041462    0.000126
  42 H :    0.041764    0.000119
  43 H :    0.041320    0.000110

  Mayer bond orders larger than 0.1
B(  0-Fe,  1-N ) :   0.5858 B(  0-Fe, 11-N ) :   0.6026 B(  0-Fe, 17-N ) :   0.5653
B(  0-Fe, 23-N ) :   0.5570 B(  0-Fe, 25-O ) :   0.8489 B(  0-Fe, 26-O ) :   0.1063
B(  1-N ,  2-C ) :   1.2493 B(  1-N ,  5-C ) :   1.2480 B(  2-C ,  3-C ) :   1.1339
B(  2-C , 24-C ) :   1.3083 B(  3-C ,  4-C ) :   1.4821 B(  3-C , 31-H ) :   1.0007
B(  4-C ,  5-C ) :   1.1381 B(  4-C , 32-H ) :   0.9997 B(  5-C ,  6-C ) :   1.3176
B(  6-C ,  7-C ) :   1.3146 B(  6-C , 40-H ) :   0.9449 B(  7-C ,  8-C ) :   1.1355
B(  7-C , 11-N ) :   1.2421 B(  8-C ,  9-C ) :   1.4883 B(  8-C , 33-H ) :   0.9995
B(  9-C , 10-C ) :   1.1324 B(  9-C , 34-H ) :   0.9997 B( 10-C , 11-N ) :   1.2451
B( 10-C , 12-C ) :   1.3153 B( 12-C , 13-C ) :   1.3050 B( 12-C , 42-H ) :   0.9490
B( 13-C , 14-C ) :   1.1359 B( 13-C , 17-N ) :   1.2564 B( 14-C , 15-C ) :   1.4821
B( 14-C , 36-H ) :   1.0008 B( 15-C , 16-C ) :   1.1361 B( 15-C , 35-H ) :   1.0001
B( 16-C , 17-N ) :   1.2570 B( 16-C , 18-C ) :   1.3107 B( 18-C , 19-C ) :   1.3083
B( 18-C , 43-H ) :   0.9490 B( 19-C , 20-C ) :   1.1336 B( 19-C , 23-N ) :   1.2587
B( 20-C , 21-C ) :   1.4838 B( 20-C , 30-H ) :   1.0010 B( 21-C , 22-C ) :   1.1342
B( 21-C , 29-H ) :   0.9999 B( 22-C , 23-N ) :   1.2617 B( 22-C , 24-C ) :   1.3107
B( 24-C , 41-H ) :   0.9486 B( 25-O , 27-C ) :   1.2135 B( 26-O , 27-C ) :   2.0130
B( 27-C , 28-C ) :   1.0250 B( 28-C , 37-H ) :   0.9501 B( 28-C , 38-H ) :   0.9500
B( 28-C , 39-H ) :   0.9585

FINAL SINGLE POINT ENERGY     -2479.869451330996

DIPOLE MOMENT
-------------
                                X             Y             Z
Electronic contribution:      0.02411       0.25822       6.77552
Nuclear contribution   :     -0.17806       0.43493      -6.31438
                        -----------------------------------------
Total Dipole Moment    :     -0.15396       0.69315       0.46113
                        -----------------------------------------
Magnitude (a.u.)       :      0.84665
Magnitude (Debye)      :      2.15200

Rotational constants in cm-1:     0.006709     0.006430     0.004333
Rotational constants in MHz :   201.123315   192.780205   129.912021

                             ****ORCA TERMINATED NORMALLY****
TOTAL RUN TIME: 0 days 0 hours 4 minutes 41 seconds 425 msec
