                         Program Version 4.1.2  - RELEASE  -
|  1> ! bp86 def2-svp
|  2>
|  3> * xyzfile -2 4 geom.xyz
|  4>
|  5> %eprnmr
|  6> nuclei = all Fe {fgrad, rho}
|  7> end
|  8>
|  9>
| 10>                          ****END OF INPUT****

CARTESIAN COORDINATES (ANGSTROEM)
---------------------------------
  Fe    -0.173441   -0.037399    0.166692
  Cl    -0.578421    0.076477    2.598130
  N      1.094884   -1.484632   -0.085277
  N     -1.506822   -1.429696   -0.111515
  N     -1.426598    1.394223   -0.270701
  N      1.174313    1.275214   -0.314149
  O     -1.707660   -3.640462   -0.812817
  O     -4.458343    0.087408    1.196789
  O     -1.527600    3.564694   -1.072588
  O      3.332636    1.962055   -0.753113
  O      3.158891   -2.481976    0.071938
  C      0.500202   -2.799907   -0.433121
  C     -1.026334   -2.640379   -0.476880
  C     -2.987184   -1.273450   -0.111450
  C     -3.450493    0.083147    0.490989
  C     -2.874105    1.450454    0.063726
  C     -0.884398    2.535443   -0.745349
  C      0.650483    2.558809   -0.848147
  C      2.523239    1.119456   -0.291146
  C      3.129080   -0.115967    0.402910
  C      2.436154   -1.455601    0.085008
  C      0.973257   -3.274171   -1.828103
  C      0.756303   -3.905227    0.621339
  C     -3.503383   -1.294930   -1.581221
  C     -3.716474   -2.366314    0.703956
  C     -3.079079    2.449914    1.225650
  C     -3.785054    1.890427   -1.133702
  C      1.117430    3.750755    0.020218
  C      1.010169    2.780179   -2.333648
  C      2.987758    0.031071    1.959364
  C      3.667107    1.248970    2.596533
  C      4.643376   -0.217531    0.066049
  C      5.027360   -0.446573   -1.402273
  H      0.390685   -4.152805   -2.121983
  H      2.034178   -3.530850   -1.802514
  H      0.818044   -2.486739   -2.574397
  H      1.810614   -4.177975    0.639103
  H      0.147437   -4.775900    0.358680
  H      0.453353   -3.550653    1.612535
  H     -4.560094   -1.011231   -1.630661
  H     -3.383573   -2.307352   -1.973435
  H     -2.913773   -0.616196   -2.201774
  H     -3.541789   -3.341071    0.256269
  H     -4.785143   -2.143918    0.707103
  H     -3.366842   -2.366907    1.740865
  H     -4.133228    2.482386    1.510907
  H     -2.757834    3.436264    0.886916
  H     -2.478251    2.145927    2.086788
  H     -3.681182    2.965421   -1.270247
  H     -4.828151    1.647681   -0.907590
  H     -3.494915    1.392175   -2.061163
  H      2.192632    3.895805   -0.096330
  H      0.895653    3.542755    1.071701
  H      0.577609    4.652573   -0.283627
  H      2.085173    2.928026   -2.443963
  H      0.471552    3.660159   -2.701627
  H      0.711883    1.910263   -2.930028
  H      1.922952    0.044947    2.205842
  H      3.409492   -0.888737    2.386994
  H      3.438376    1.266842    3.668574
  H      3.299730    2.186410    2.164725
  H      4.756206    1.223945    2.486717
  H      5.048282   -1.035936    0.671120
  H      5.111863    0.710700    0.403537
  H      6.118472   -0.527756   -1.495867
  H      4.700671    0.390430   -2.025349
  H      4.595594   -1.374764   -1.789409

 Total Charge           Charge          ....   -2
 Multiplicity           Mult            ....    4
 Number of Electrons    NEL             ....  279
 Basis Dimension        Dim             ....  653

ORBITAL ENERGIES
----------------
                 SPIN UP ORBITALS
  NO   OCC          E(Eh)            E(eV)
   0   1.0000    -254.600047     -6928.0195
   1   1.0000    -100.389280     -2731.7312
   2   1.0000     -29.379473      -799.4561
   3   1.0000     -25.337072      -689.4568
   4   1.0000     -25.322228      -689.0529
   5   1.0000     -25.317014      -688.9110
   6   1.0000     -18.562108      -505.1006
   7   1.0000     -18.515048      -503.8201
   8   1.0000     -18.513800      -503.7861
   9   1.0000     -18.513093      -503.7669
  10   1.0000     -18.511393      -503.7206
  11   1.0000     -13.788156      -375.1948
  12   1.0000     -13.787667      -375.1815
  13   1.0000     -13.782851      -375.0504
  14   1.0000     -13.781904      -375.0247
  15   1.0000      -9.785774      -266.2844
  16   1.0000      -9.764860      -265.7153
  17   1.0000      -9.763303      -265.6730
  18   1.0000      -9.761889      -265.6345
  19   1.0000      -9.761397      -265.6211
  20   1.0000      -9.750137      -265.3147
  21   1.0000      -9.748728      -265.2764
  22   1.0000      -9.732850      -264.8443
  23   1.0000      -9.730982      -264.7935
  24   1.0000      -9.710537      -264.2371
  25   1.0000      -9.708914      -264.1930
  26   1.0000      -9.707589      -264.1569
  27   1.0000      -9.706065      -264.1155
  28   1.0000      -9.699026      -263.9239
  29   1.0000      -9.698204      -263.9015
  30   1.0000      -9.697235      -263.8752
  31   1.0000      -9.692774      -263.7538
  32   1.0000      -9.692634      -263.7500
  33   1.0000      -9.689411      -263.6623
  34   1.0000      -9.688034      -263.6248
  35   1.0000      -9.686055      -263.5710
  36   1.0000      -9.684258      -263.5221
  37   1.0000      -8.870211      -241.3707
  38   1.0000      -6.696954      -182.2334
  39   1.0000      -6.693337      -182.1350
  40   1.0000      -6.692480      -182.1116
  41   1.0000      -3.103088       -84.4393
  42   1.0000      -1.943873       -52.8955
  43   1.0000      -1.908890       -51.9435
  44   1.0000      -1.897713       -51.6394
  45   1.0000      -0.734804       -19.9950
  46   1.0000      -0.699196       -19.0261
  47   1.0000      -0.696442       -18.9512
  48   1.0000      -0.693499       -18.8711
  49   1.0000      -0.689502       -18.7623
  50   1.0000      -0.592935       -16.1346
  51   1.0000      -0.583104       -15.8671
  52   1.0000      -0.576342       -15.6831
  53   1.0000      -0.568498       -15.4696
  54   1.0000      -0.522676       -14.2227
  55   1.0000      -0.491497       -13.3743
  56   1.0000      -0.483764       -13.1639
  57   1.0000      -0.474134       -12.9018
  58   1.0000      -0.467550       -12.7227
  59   1.0000      -0.465935       -12.6787
  60   1.0000      -0.422790       -11.5047
  61   1.0000      -0.416631       -11.3371
  62   1.0000      -0.414539       -11.2802
  63   1.0000      -0.407092       -11.0775
  64   1.0000      -0.405112       -11.0236
  65   1.0000      -0.402267       -10.9462
  66   1.0000      -0.383778       -10.4431
  67   1.0000      -0.355670        -9.6783
  68   1.0000      -0.350131        -9.5275
  69   1.0000      -0.338606        -9.2139
  70   1.0000      -0.316268        -8.6061
  71   1.0000      -0.312453        -8.5023
  72   1.0000      -0.279664        -7.6100
  73   1.0000      -0.259094        -7.0503
  74   1.0000      -0.240850        -6.5539
  75   1.0000      -0.233837        -6.3630
  76   1.0000      -0.231079        -6.2880
  77   1.0000      -0.219799        -5.9810
  78   1.0000      -0.208781        -5.6812
  79   1.0000      -0.203233        -5.5302
  80   1.0000      -0.200398        -5.4531
  81   1.0000      -0.199408        -5.4262
  82   1.0000      -0.195988        -5.3331
  83   1.0000      -0.192089        -5.2270
  84   1.0000      -0.183812        -5.0018
  85   1.0000      -0.181008        -4.9255
  86   1.0000      -0.180236        -4.9045
  87   1.0000      -0.178799        -4.8654
  88   1.0000      -0.171139        -4.6569
  89   1.0000      -0.169754        -4.6192
  90   1.0000      -0.169029        -4.5995
  91   1.0000      -0.165519        -4.5040
  92   1.0000      -0.160374        -4.3640
  93   1.0000      -0.157558        -4.2874
  94   1.0000      -0.155660        -4.2357
  95   1.0000      -0.148613        -4.0440
  96   1.0000      -0.147586        -4.0160
  97   1.0000      -0.145140        -3.9495
  98   1.0000      -0.144151        -3.9225
  99   1.0000      -0.135862        -3.6970
 100   1.0000      -0.133925        -3.6443
 101   1.0000      -0.132265        -3.5991
 102   1.0000      -0.130849        -3.5606
 103   1.0000      -0.127624        -3.4728
 104   1.0000      -0.123301        -3.3552
 105   1.0000      -0.117187        -3.1888
 106   1.0000      -0.115012        -3.1296
 107   1.0000      -0.113313        -3.0834
 108   1.0000      -0.109363        -2.9759
 109   1.0000      -0.109304        -2.9743
 110   1.0000      -0.104095        -2.8326
 111   1.0000      -0.103215        -2.8086
 112   1.0000      -0.100450        -2.7334
 113   1.0000      -0.095449        -2.5973
 114   1.0000      -0.093190        -2.5358
 115   1.0000      -0.091567        -2.4917
 116   1.0000      -0.087739        -2.3875
 117   1.0000      -0.084307        -2.2941
 118   1.0000      -0.078405        -2.1335
 119   1.0000      -0.075616        -2.0576
 120   1.0000      -0.073901        -2.0109
 121   1.0000      -0.073251        -1.9933
 122   1.0000      -0.063942        -1.7399
 123   1.0000      -0.060589        -1.6487
 124   1.0000      -0.051376        -1.3980
 125   1.0000      -0.050638        -1.3779
 126   1.0000      -0.031580        -0.8593
 127   1.0000      -0.027170        -0.7393
 128   1.0000      -0.014098        -0.3836
 129   1.0000       0.001520         0.0414
 130   1.0000       0.009570         0.2604
 131   1.0000       0.013271         0.3611
 132   1.0000       0.019066         0.5188
 133   1.0000       0.022132         0.6022
 134   1.0000       0.023436         0.6377
 135   1.0000       0.024970         0.6795
 136   1.0000       0.031917         0.8685
 137   1.0000       0.032922         0.8958
 138   1.0000       0.037140         1.0106
 139   1.0000       0.045420         1.2359
 140   1.0000       0.054875         1.4932
 141   0.0000       0.142749         3.8844
 142   0.0000       0.145168         3.9502
 143   0.0000       0.202944         5.5224
 144   0.0000       0.212082         5.7710
 145   0.0000       0.212545         5.7836

                 SPIN DOWN ORBITALS
  NO   OCC          E(Eh)            E(eV)
   0   1.0000    -254.599528     -6928.0054
   1   1.0000    -100.388107     -2731.6993
   2   1.0000     -29.333742      -798.2117
   3   1.0000     -25.293153      -688.2617
   4   1.0000     -25.290203      -688.1814
   5   1.0000     -25.289121      -688.1520
   6   1.0000     -18.562121      -505.1010
   7   1.0000     -18.514598      -503.8078
   8   1.0000     -18.513307      -503.7727
   9   1.0000     -18.512287      -503.7449
  10   1.0000     -18.510616      -503.6995
  11   1.0000     -13.787567      -375.1788
  12   1.0000     -13.787213      -375.1692
  13   1.0000     -13.782490      -375.0406
  14   1.0000     -13.781462      -375.0126
  15   1.0000      -9.785772      -266.2844
  16   1.0000      -9.764660      -265.7099
  17   1.0000      -9.763126      -265.6682
  18   1.0000      -9.761792      -265.6319
  19   1.0000      -9.761285      -265.6181
  20   1.0000      -9.750172      -265.3157
  21   1.0000      -9.748735      -265.2766
  22   1.0000      -9.732947      -264.8470
  23   1.0000      -9.731086      -264.7963
  24   1.0000      -9.710517      -264.2366
  25   1.0000      -9.708914      -264.1930
  26   1.0000      -9.707599      -264.1572
  27   1.0000      -9.706084      -264.1160
  28   1.0000      -9.699018      -263.9237
  29   1.0000      -9.698179      -263.9009
  30   1.0000      -9.697234      -263.8751
  31   1.0000      -9.692730      -263.7526
  32   1.0000      -9.692586      -263.7487
  33   1.0000      -9.689371      -263.6612
  34   1.0000      -9.687987      -263.6235
  35   1.0000      -9.685993      -263.5693
  36   1.0000      -9.684208      -263.5207
  37   1.0000      -8.869073      -241.3397
  38   1.0000      -6.694578      -182.1687
  39   1.0000      -6.692166      -182.1031
  40   1.0000      -6.691373      -182.0815
  41   1.0000      -2.997585       -81.5684
  42   1.0000      -1.821392       -49.5626
  43   1.0000      -1.816324       -49.4247
  44   1.0000      -1.803443       -49.0742
  45   1.0000      -0.734817       -19.9954
  46   1.0000      -0.698212       -18.9993
  47   1.0000      -0.695632       -18.9291
  48   1.0000      -0.692576       -18.8459
  49   1.0000      -0.688355       -18.7311
  50   1.0000      -0.591865       -16.1055
  51   1.0000      -0.582076       -15.8391
  52   1.0000      -0.575354       -15.6562
  53   1.0000      -0.567473       -15.4417
  54   1.0000      -0.522482       -14.2175
  55   1.0000      -0.490932       -13.3589
  56   1.0000      -0.483142       -13.1470
  57   1.0000      -0.473776       -12.8921
  58   1.0000      -0.467484       -12.7209
  59   1.0000      -0.465492       -12.6667
  60   1.0000      -0.416912       -11.3447
  61   1.0000      -0.416465       -11.3326
  62   1.0000      -0.413646       -11.2559
  63   1.0000      -0.406908       -11.0725
  64   1.0000      -0.405016       -11.0210
  65   1.0000      -0.402159       -10.9433
  66   1.0000      -0.383642       -10.4394
  67   1.0000      -0.355301        -9.6682
  68   1.0000      -0.349927        -9.5220
  69   1.0000      -0.338518        -9.2115
  70   1.0000      -0.316041        -8.5999
  71   1.0000      -0.312305        -8.4983
  72   1.0000      -0.279241        -7.5985
  73   1.0000      -0.258799        -7.0423
  74   1.0000      -0.240562        -6.5460
  75   1.0000      -0.232828        -6.3356
  76   1.0000      -0.230505        -6.2724
  77   1.0000      -0.219218        -5.9652
  78   1.0000      -0.207688        -5.6515
  79   1.0000      -0.201890        -5.4937
  80   1.0000      -0.200049        -5.4436
  81   1.0000      -0.198862        -5.4113
  82   1.0000      -0.195633        -5.3234
  83   1.0000      -0.191632        -5.2146
  84   1.0000      -0.182980        -4.9791
  85   1.0000      -0.179960        -4.8970
  86   1.0000      -0.179250        -4.8776
  87   1.0000      -0.178058        -4.8452
  88   1.0000      -0.170377        -4.6362
  89   1.0000      -0.168995        -4.5986
  90   1.0000      -0.168249        -4.5783
  91   1.0000      -0.164978        -4.4893
  92   1.0000      -0.159953        -4.3525
  93   1.0000      -0.156881        -4.2689
  94   1.0000      -0.154079        -4.1927
  95   1.0000      -0.147417        -4.0114
  96   1.0000      -0.147100        -4.0028
  97   1.0000      -0.144565        -3.9338
  98   1.0000      -0.143598        -3.9075
  99   1.0000      -0.135475        -3.6865
 100   1.0000      -0.133663        -3.6371
 101   1.0000      -0.131753        -3.5852
 102   1.0000      -0.130079        -3.5396
 103   1.0000      -0.127153        -3.4600
 104   1.0000      -0.122815        -3.3420
 105   1.0000      -0.116498        -3.1701
 106   1.0000      -0.113682        -3.0934
 107   1.0000      -0.111967        -3.0468
 108   1.0000      -0.108756        -2.9594
 109   1.0000      -0.107899        -2.9361
 110   1.0000      -0.103078        -2.8049
 111   1.0000      -0.101969        -2.7747
 112   1.0000      -0.099648        -2.7116
 113   1.0000      -0.094986        -2.5847
 114   1.0000      -0.092448        -2.5156
 115   1.0000      -0.090734        -2.4690
 116   1.0000      -0.085556        -2.3281
 117   1.0000      -0.082482        -2.2445
 118   1.0000      -0.075588        -2.0569
 119   1.0000      -0.072630        -1.9764
 120   1.0000      -0.071101        -1.9347
 121   1.0000      -0.065109        -1.7717
 122   1.0000      -0.062487        -1.7004
 123   1.0000      -0.052237        -1.4214
 124   1.0000      -0.038466        -1.0467
 125   1.0000      -0.022848        -0.6217
 126   1.0000      -0.005395        -0.1468
 127   1.0000      -0.002335        -0.0635
 128   1.0000       0.002545         0.0693
 129   1.0000       0.003678         0.1001
 130   1.0000       0.014451         0.3932
 131   1.0000       0.018307         0.4981
 132   1.0000       0.023713         0.6453
 133   1.0000       0.027058         0.7363
 134   1.0000       0.027949         0.7605
 135   1.0000       0.029327         0.7980
 136   1.0000       0.037885         1.0309
 137   1.0000       0.073235         1.9928
 138   0.0000       0.112574         3.0633
 139   0.0000       0.114276         3.1096
 140   0.0000       0.121030         3.2934
 141   0.0000       0.145577         3.9613
 142   0.0000       0.192332         5.2336

MULLIKEN ATOMIC CHARGES AND SPIN POPULATIONS
--------------------------------------------
   0 Fe:    0.569332    2.687575
   1 Cl:   -0.448472    0.167731
   2 N :   -0.275709   -0.002405
   3 N :   -0.279556    0.004188
   4 N :   -0.282294   -0.001397
   5 N :   -0.282653   -0.005686
   6 O :   -0.319990    0.020905
   7 O :   -0.223832   -0.000630
   8 O :   -0.320876    0.019081
   9 O :   -0.303306    0.034545
  10 O :   -0.305528    0.033332
  11 C :   -0.092984   -0.005198
  12 C :    0.120847    0.007716
  13 C :   -0.130949    0.000917
  14 C :    0.080798   -0.002970
  15 C :   -0.131818    0.001214
  16 C :    0.116218    0.006788
  17 C :   -0.084867   -0.005267
  18 C :    0.135708    0.016499
  19 C :   -0.250364   -0.005350
  20 C :    0.131405    0.014952
  21 C :    0.066220    0.002837
  22 C :    0.075561    0.002397
  23 C :    0.052934    0.001762
  24 C :    0.099377    0.001125
  25 C :    0.089390    0.002310
  26 C :    0.093943   -0.001342
  27 C :    0.043973    0.002013
  28 C :    0.064125    0.003206
  29 C :    0.038381    0.002883
  30 C :   -0.008656   -0.000029
  31 C :    0.093231   -0.000158
  32 C :   -0.015226    0.000128
  33 H :   -0.015794    0.000077
  34 H :    0.006059   -0.000192
  35 H :   -0.006944   -0.000511
  36 H :    0.002416   -0.000234
  37 H :   -0.020444    0.000029
  38 H :    0.004585   -0.000415
  39 H :   -0.021407    0.000437
  40 H :    0.019050   -0.000002
  41 H :    0.026481   -0.000773
  42 H :    0.005872   -0.000168
  43 H :   -0.022953    0.000852
  44 H :    0.005529    0.000238
  45 H :   -0.027264    0.001542
  46 H :    0.004677   -0.000212
  47 H :    0.004640   -0.000125
  48 H :    0.020126   -0.000010
  49 H :   -0.020334    0.000380
  50 H :   -0.011837    0.000309
  51 H :    0.008582   -0.000132
  52 H :    0.016231   -0.000387
  53 H :   -0.015689    0.000128
  54 H :    0.009766   -0.000216
  55 H :   -0.017014   -0.000029
  56 H :   -0.004704   -0.000704
  57 H :    0.019233   -0.003794
  58 H :   -0.024507   -0.000220
  59 H :   -0.010134    0.000051
  60 H :    0.025816   -0.000141
  61 H :   -0.006799    0.000061
  62 H :   -0.032187   -0.000039
  63 H :   -0.022953   -0.000067
  64 H :   -0.040685    0.000021
  65 H :    0.017402    0.000339
  66 H :    0.010820    0.000230
Sum of atomic charges         :   -2.0000000

LOEWDIN ATOMIC CHARGES AND SPIN POPULATIONS
-------------------------------------------
   0 Fe:    0.190822    2.585733
   1 Cl:   -0.380111    0.174292
   2 N :   -0.113911    0.020424
   3 N :   -0.113720    0.025144
   4 N :   -0.118922    0.019308
   5 N :   -0.118169    0.017355
   6 O :   -0.276471    0.020374
   7 O :   -0.160316   -0.000551
   8 O :   -0.277828    0.018534
   9 O :   -0.263085    0.033372
  10 O :   -0.263764    0.032202
  11 C :   -0.013299   -0.002344
  12 C :    0.033457    0.009055
  13 C :   -0.011571   -0.000179
  14 C :    0.102687   -0.000298
  15 C :   -0.012100    0.000481
  16 C :    0.032774    0.008069
  17 C :   -0.013488   -0.002196
  18 C :    0.042215    0.014529
  19 C :   -0.087177    0.000107
  20 C :    0.044007    0.013096
  21 C :   -0.062178    0.001611
  22 C :   -0.060989    0.001930
  23 C :   -0.054834    0.000843
  24 C :   -0.065397    0.001548
  25 C :   -0.058969    0.002268
  26 C :   -0.055672   -0.000924
  27 C :   -0.064227    0.001484
  28 C :   -0.064148    0.001817
  29 C :   -0.021659    0.001275
  30 C :   -0.076420    0.000063
  31 C :   -0.029587   -0.000058
  32 C :   -0.077992    0.000224
  33 H :    0.010031    0.000061
  34 H :    0.014849   -0.000004
  35 H :    0.015803   -0.000174
  36 H :    0.011015    0.000020
  37 H :    0.008115    0.000084
  38 H :    0.022220   -0.000050
  39 H :    0.009426    0.000339
  40 H :    0.022993    0.000067
  41 H :    0.021513   -0.000237
  42 H :    0.011732   -0.000013
  43 H :    0.006285    0.000518
  44 H :    0.023424    0.000209
  45 H :    0.004454    0.000955
  46 H :    0.015333    0.000009
  47 H :    0.014363    0.000206
  48 H :    0.020444   -0.000035
  49 H :    0.008133    0.000227
  50 H :    0.016710    0.000079
  51 H :    0.013000    0.000059
  52 H :    0.023469   -0.000058
  53 H :    0.009465    0.000120
  54 H :    0.014386   -0.000009
  55 H :    0.009815    0.000020
  56 H :    0.016977   -0.000223
  57 H :    0.010662   -0.001074
  58 H :    0.011910   -0.000005
  59 H :    0.014761    0.000079
  60 H :    0.027292   -0.000034
  61 H :    0.008036    0.000030
  62 H :    0.008151   -0.000067
  63 H :    0.009972   -0.000062
  64 H :    0.001954    0.000011
  65 H :    0.017115    0.000217
  66 H :    0.016234    0.000145

  Mayer bond orders larger than 0.1
B(  0-Fe,  1-Cl) :   0.6579 B(  0-Fe,  2-N ) :   0.7407 B(  0-Fe,  3-N ) :   0.7197
B(  0-Fe,  4-N ) :   0.7123 B(  0-Fe,  5-N ) :   0.7403 B(  1-Cl, 57-H ) :   0.1332
B(  2-N , 11-C ) :   0.9578 B(  2-N , 20-C ) :   1.3260 B(  3-N , 12-C ) :   1.3063
B(  3-N , 13-C ) :   0.9722 B(  4-N , 15-C ) :   0.9727 B(  4-N , 16-C ) :   1.3090
B(  5-N , 17-C ) :   0.9560 B(  5-N , 18-C ) :   1.3142 B(  6-O , 12-C ) :   1.8179
B(  7-O , 14-C ) :   2.0924 B(  8-O , 16-C ) :   1.8254 B(  9-O , 18-C ) :   1.8279
B( 10-O , 20-C ) :   1.8354 B( 11-C , 12-C ) :   0.8907 B( 11-C , 21-C ) :   1.0528
B( 11-C , 22-C ) :   1.0473 B( 13-C , 14-C ) :   0.8842 B( 13-C , 23-C ) :   1.0411
B( 13-C , 24-C ) :   1.0730 B( 14-C , 15-C ) :   0.8987 B( 15-C , 25-C ) :   1.0574
B( 15-C , 26-C ) :   1.0326 B( 16-C , 17-C ) :   0.8898 B( 17-C , 27-C ) :   1.0486
B( 17-C , 28-C ) :   1.0435 B( 18-C , 19-C ) :   0.8767 B( 19-C , 20-C ) :   0.8797
B( 19-C , 29-C ) :   1.0297 B( 19-C , 31-C ) :   1.0589 B( 21-C , 33-H ) :   0.9414
B( 21-C , 34-H ) :   0.9449 B( 21-C , 35-H ) :   0.9497 B( 22-C , 36-H ) :   0.9390
B( 22-C , 37-H ) :   0.9397 B( 22-C , 38-H ) :   0.9475 B( 23-C , 39-H ) :   0.9409
B( 23-C , 40-H ) :   0.9336 B( 23-C , 41-H ) :   0.9435 B( 24-C , 42-H ) :   0.9273
B( 24-C , 43-H ) :   0.9311 B( 24-C , 44-H ) :   0.9480 B( 25-C , 45-H ) :   0.9381
B( 25-C , 46-H ) :   0.9348 B( 25-C , 47-H ) :   0.9343 B( 26-C , 48-H ) :   0.9316
B( 26-C , 49-H ) :   0.9383 B( 26-C , 50-H ) :   0.9418 B( 27-C , 51-H ) :   0.9424
B( 27-C , 52-H ) :   0.9511 B( 27-C , 53-H ) :   0.9397 B( 28-C , 54-H ) :   0.9423
B( 28-C , 55-H ) :   0.9425 B( 28-C , 56-H ) :   0.9493 B( 29-C , 30-C ) :   1.1194
B( 29-C , 57-H ) :   0.8934 B( 29-C , 58-H ) :   0.9197 B( 30-C , 59-H ) :   0.9525
B( 30-C , 60-H ) :   0.9532 B( 30-C , 61-H ) :   0.9530 B( 31-C , 32-C ) :   1.1166
B( 31-C , 62-H ) :   0.9097 B( 31-C , 63-H ) :   0.9051 B( 32-C , 64-H ) :   0.9525
B( 32-C , 65-H ) :   0.9530 B( 32-C , 66-H ) :   0.9553

FINAL SINGLE POINT ENERGY     -3177.032375374714

DIPOLE MOMENT
-------------
                                X             Y             Z
Electronic contribution:    -11.82334      -2.25136      10.00846
Nuclear contribution   :     11.66355       2.46309     -10.64707
                        -----------------------------------------
Total Dipole Moment    :     -0.15979       0.21173      -0.63861
                        -----------------------------------------
Magnitude (a.u.)       :      0.69151
Magnitude (Debye)      :      1.75768

Rotational constants in cm-1:     0.005773     0.004083     0.003066
Rotational constants in MHz :   173.056861   122.413319    91.914888

                             ****ORCA TERMINATED NORMALLY****
TOTAL RUN TIME: 0 days 0 hours 3 minutes 35 seconds 116 msec
