                         Program Version 4.1.2  - RELEASE  -
|  1> ! bp86 def2-svp
|  2>
|  3> * xyzfile 0 1 geom.xyz
|  4>
|  5> %eprnmr
|  6> nuclei = all Fe {fgrad, rho}
|  7> end
|  8>
|  9>
| 10>                          ****END OF INPUT****

CARTESIAN COORDINATES (ANGSTROEM)
---------------------------------
  Fe    -0.000082   -0.598603   -0.036628
  P      0.211882   -2.810897   -0.175639
  H      1.483580   -3.394435    0.062124
  S     -1.681392   -0.534557   -1.511495
  S     -1.537799   -0.721723    1.691329
  S      1.641137   -0.589803   -1.700668
  S      1.585758   -0.380926    1.517692
  C     -5.508724   -0.173407    1.009369
  C     -5.588937   -0.037866   -0.385599
  C     -4.423332   -0.121705   -1.148355
  C     -3.188144   -0.308244   -0.513901
  C     -3.087323   -0.442376    0.885241
  C     -4.282533   -0.370864    1.635462
  C      3.147999   -0.395253   -0.778180
  C      3.154055   -0.248197    0.622722
  C      4.399575   -0.386836   -1.431544
  C      5.582458   -0.240951   -0.712848
  C      5.565693   -0.098724    0.683030
  C      4.342429   -0.115705    1.350206
  C     -1.345139    1.178247   -2.153467
  C      1.189049    1.376223    1.995464
  C      0.561184    2.121374    0.861648
  C     -0.725954    2.030067   -1.088150
  N     -0.077455    1.378733   -0.082727
  C     -0.763780    3.422804   -1.157212
  C      0.578921    3.513750    0.826018
  C     -0.092386    4.180399   -0.200476
  H     -6.413097   -0.136861    1.610919
  H     -6.550374    0.110370   -0.868304
  H     -4.473632   -0.043424   -2.231907
  H     -4.229319   -0.470945    2.716483
  H      4.436800   -0.498539   -2.512141
  H      6.529165   -0.244740   -1.246735
  H      6.492124    0.001529    1.241309
  H      4.301630   -0.031284    2.433748
  H     -2.259398    1.606885   -2.566467
  H     -0.626592    1.008816   -2.961814
  H      2.081446    1.864802    2.390684
  H      0.459752    1.245926    2.801183
  H     -1.292561    3.905642   -1.972474
  H      1.103275    4.056602    1.605393
  H     -0.094881    5.264749   -0.250717
  H     -0.029598   -3.415509   -1.436139
  H     -0.571713   -3.680252    0.632427

 Total Charge           Charge          ....    0
 Multiplicity           Mult            ....    1
 Number of Electrons    NEL             ....  244
 Basis Dimension        Dim             ....  491

ORBITAL ENERGIES
----------------

  NO   OCC          E(Eh)            E(eV)
   0   2.0000    -254.789387     -6933.1717
   1   2.0000     -88.129653     -2398.1298
   2   2.0000     -88.129626     -2398.1291
   3   2.0000     -88.047535     -2395.8952
   4   2.0000     -88.041801     -2395.7392
   5   2.0000     -76.369034     -2078.1071
   6   2.0000     -29.541013      -803.8518
   7   2.0000     -25.494834      -693.7497
   8   2.0000     -25.494424      -693.7385
   9   2.0000     -25.490673      -693.6365
  10   2.0000     -14.062046      -382.6477
  11   2.0000      -9.978240      -271.5217
  12   2.0000      -9.977366      -271.4979
  13   2.0000      -9.959003      -270.9983
  14   2.0000      -9.957837      -270.9665
  15   2.0000      -9.945342      -270.6265
  16   2.0000      -9.941432      -270.5201
  17   2.0000      -9.941397      -270.5192
  18   2.0000      -9.938034      -270.4276
  19   2.0000      -9.935896      -270.3695
  20   2.0000      -9.934352      -270.3275
  21   2.0000      -9.934015      -270.3183
  22   2.0000      -9.922310      -269.9998
  23   2.0000      -9.920575      -269.9526
  24   2.0000      -9.914981      -269.8004
  25   2.0000      -9.911927      -269.7173
  26   2.0000      -9.911311      -269.7005
  27   2.0000      -9.910816      -269.6870
  28   2.0000      -9.908046      -269.6116
  29   2.0000      -9.907969      -269.6095
  30   2.0000      -7.720613      -210.0885
  31   2.0000      -7.720610      -210.0885
  32   2.0000      -7.641116      -207.9253
  33   2.0000      -7.635929      -207.7842
  34   2.0000      -6.336394      -172.4220
  35   2.0000      -5.748131      -156.4146
  36   2.0000      -5.748115      -156.4142
  37   2.0000      -5.744898      -156.3266
  38   2.0000      -5.744816      -156.3244
  39   2.0000      -5.738756      -156.1595
  40   2.0000      -5.738737      -156.1590
  41   2.0000      -5.669021      -154.2619
  42   2.0000      -5.663864      -154.1216
  43   2.0000      -5.663351      -154.1076
  44   2.0000      -5.660505      -154.0302
  45   2.0000      -5.658120      -153.9653
  46   2.0000      -5.655221      -153.8864
  47   2.0000      -4.557840      -124.0251
  48   2.0000      -4.557626      -124.0193
  49   2.0000      -4.554782      -123.9419
  50   2.0000      -3.227131       -87.8147
  51   2.0000      -2.047863       -55.7252
  52   2.0000      -2.045700       -55.6663
  53   2.0000      -2.037550       -55.4446
  54   2.0000      -0.891099       -24.2480
  55   2.0000      -0.787570       -21.4309
  56   2.0000      -0.783863       -21.3300
  57   2.0000      -0.762419       -20.7465
  58   2.0000      -0.748314       -20.3627
  59   2.0000      -0.735374       -20.0106
  60   2.0000      -0.709248       -19.2996
  61   2.0000      -0.689253       -18.7555
  62   2.0000      -0.686081       -18.6692
  63   2.0000      -0.673164       -18.3177
  64   2.0000      -0.658263       -17.9122
  65   2.0000      -0.626612       -17.0510
  66   2.0000      -0.611424       -16.6377
  67   2.0000      -0.607701       -16.5364
  68   2.0000      -0.592205       -16.1147
  69   2.0000      -0.591550       -16.0969
  70   2.0000      -0.569269       -15.4906
  71   2.0000      -0.564766       -15.3681
  72   2.0000      -0.533318       -14.5123
  73   2.0000      -0.530614       -14.4388
  74   2.0000      -0.515028       -14.0146
  75   2.0000      -0.508087       -13.8257
  76   2.0000      -0.482557       -13.1310
  77   2.0000      -0.466961       -12.7067
  78   2.0000      -0.455875       -12.4050
  79   2.0000      -0.441000       -12.0002
  80   2.0000      -0.433683       -11.8011
  81   2.0000      -0.432593       -11.7715
  82   2.0000      -0.418249       -11.3811
  83   2.0000      -0.414243       -11.2721
  84   2.0000      -0.409577       -11.1452
  85   2.0000      -0.400821       -10.9069
  86   2.0000      -0.399538       -10.8720
  87   2.0000      -0.394040       -10.7224
  88   2.0000      -0.390440       -10.6244
  89   2.0000      -0.380194       -10.3456
  90   2.0000      -0.374048       -10.1784
  91   2.0000      -0.370058       -10.0698
  92   2.0000      -0.362485        -9.8637
  93   2.0000      -0.358903        -9.7662
  94   2.0000      -0.355212        -9.6658
  95   2.0000      -0.353599        -9.6219
  96   2.0000      -0.350279        -9.5316
  97   2.0000      -0.346829        -9.4377
  98   2.0000      -0.336458        -9.1555
  99   2.0000      -0.333597        -9.0776
 100   2.0000      -0.318180        -8.6581
 101   2.0000      -0.311882        -8.4868
 102   2.0000      -0.306122        -8.3300
 103   2.0000      -0.300119        -8.1666
 104   2.0000      -0.296888        -8.0787
 105   2.0000      -0.289900        -7.8886
 106   2.0000      -0.286905        -7.8071
 107   2.0000      -0.283810        -7.7229
 108   2.0000      -0.272612        -7.4181
 109   2.0000      -0.252697        -6.8762
 110   2.0000      -0.250514        -6.8168
 111   2.0000      -0.250376        -6.8131
 112   2.0000      -0.246381        -6.7044
 113   2.0000      -0.233531        -6.3547
 114   2.0000      -0.226582        -6.1656
 115   2.0000      -0.223575        -6.0838
 116   2.0000      -0.201772        -5.4905
 117   2.0000      -0.185091        -5.0366
 118   2.0000      -0.165952        -4.5158
 119   2.0000      -0.163404        -4.4464
 120   2.0000      -0.157159        -4.2765
 121   2.0000      -0.131929        -3.5900
 122   0.0000      -0.083554        -2.2736
 123   0.0000      -0.073214        -1.9922
 124   0.0000      -0.067539        -1.8378
 125   0.0000      -0.055419        -1.5080
 126   0.0000      -0.052625        -1.4320

MULLIKEN ATOMIC CHARGES
-----------------------
   0 Fe:   -0.123510
   1 P :    0.223444
   2 H :    0.018860
   3 S :    0.060859
   4 S :   -0.167942
   5 S :   -0.182511
   6 S :    0.069248
   7 C :    0.022544
   8 C :   -0.012787
   9 C :    0.009299
  10 C :   -0.090578
  11 C :    0.018285
  12 C :   -0.025037
  13 C :    0.024243
  14 C :   -0.098402
  15 C :   -0.028424
  16 C :    0.021220
  17 C :   -0.007157
  18 C :    0.016875
  19 C :   -0.018095
  20 C :   -0.018714
  21 C :    0.026435
  22 C :    0.023765
  23 N :   -0.081895
  24 C :   -0.007612
  25 C :   -0.008086
  26 C :    0.056332
  27 H :   -0.006717
  28 H :   -0.012449
  29 H :   -0.015433
  30 H :   -0.011810
  31 H :   -0.011033
  32 H :   -0.006228
  33 H :   -0.009749
  34 H :   -0.012613
  35 H :    0.061272
  36 H :    0.103551
  37 H :    0.060596
  38 H :    0.102350
  39 H :   -0.001122
  40 H :   -0.000520
  41 H :    0.012947
  42 H :    0.017261
  43 H :    0.009037
Sum of atomic charges:   -0.0000000

LOEWDIN ATOMIC CHARGES
----------------------
   0 Fe:   -0.715108
   1 P :    0.504404
   2 H :   -0.049043
   3 S :    0.546565
   4 S :    0.066155
   5 S :    0.058017
   6 S :    0.555341
   7 C :   -0.024782
   8 C :   -0.055974
   9 C :   -0.041541
  10 C :   -0.207120
  11 C :   -0.172164
  12 C :   -0.046790
  13 C :   -0.171106
  14 C :   -0.209291
  15 C :   -0.045566
  16 C :   -0.023443
  17 C :   -0.053585
  18 C :   -0.040461
  19 C :   -0.131063
  20 C :   -0.130758
  21 C :    0.012017
  22 C :    0.011783
  23 N :    0.037407
  24 C :   -0.032895
  25 C :   -0.033196
  26 C :   -0.007633
  27 H :    0.029683
  28 H :    0.026868
  29 H :    0.025985
  30 H :    0.029034
  31 H :    0.029604
  32 H :    0.029987
  33 H :    0.027983
  34 H :    0.026981
  35 H :    0.036635
  36 H :    0.047904
  37 H :    0.037413
  38 H :    0.047198
  39 H :    0.037365
  40 H :    0.037504
  41 H :    0.037924
  42 H :   -0.050106
  43 H :   -0.058133

  Mayer bond orders larger than 0.1
B(  0-Fe,  1-P ) :   0.9272 B(  0-Fe,  3-S ) :   0.8072 B(  0-Fe,  4-S ) :   0.8406
B(  0-Fe,  5-S ) :   0.8098 B(  0-Fe,  6-S ) :   0.8023 B(  0-Fe, 23-N ) :   0.6675
B(  1-P ,  2-H ) :   0.9115 B(  1-P , 42-H ) :   0.9094 B(  1-P , 43-H ) :   0.8914
B(  3-S , 10-C ) :   0.8605 B(  3-S , 19-C ) :   0.9171 B(  4-S , 11-C ) :   1.0985
B(  5-S , 13-C ) :   1.0768 B(  6-S , 14-C ) :   0.8782 B(  6-S , 20-C ) :   0.9150
B(  7-C ,  8-C ) :   1.3288 B(  7-C , 12-C ) :   1.4224 B(  7-C , 27-H ) :   0.9789
B(  8-C ,  9-C ) :   1.3999 B(  8-C , 28-H ) :   0.9797 B(  9-C , 10-C ) :   1.3799
B(  9-C , 29-H ) :   0.9755 B( 10-C , 11-C ) :   1.3595 B( 11-C , 12-C ) :   1.3344
B( 12-C , 30-H ) :   0.9800 B( 13-C , 14-C ) :   1.3590 B( 13-C , 15-C ) :   1.3359
B( 14-C , 18-C ) :   1.3805 B( 15-C , 16-C ) :   1.4230 B( 15-C , 31-H ) :   0.9803
B( 16-C , 17-C ) :   1.3300 B( 16-C , 32-H ) :   0.9791 B( 17-C , 18-C ) :   1.3938
B( 17-C , 33-H ) :   0.9810 B( 18-C , 34-H ) :   0.9760 B( 19-C , 22-C ) :   1.0113
B( 19-C , 35-H ) :   0.9246 B( 19-C , 36-H ) :   0.9097 B( 20-C , 21-C ) :   1.0158
B( 20-C , 37-H ) :   0.9229 B( 20-C , 38-H ) :   0.9075 B( 21-C , 23-N ) :   1.3174
B( 21-C , 25-C ) :   1.4393 B( 22-C , 23-N ) :   1.3240 B( 22-C , 24-C ) :   1.4303
B( 24-C , 26-C ) :   1.3839 B( 24-C , 39-H ) :   0.9642 B( 25-C , 26-C ) :   1.3729
B( 25-C , 40-H ) :   0.9631 B( 26-C , 41-H ) :   0.9680

FINAL SINGLE POINT ENERGY     -3986.676107085894

DIPOLE MOMENT
-------------
                                X             Y             Z
Electronic contribution:     -0.01190      -9.69966      -0.06914
Nuclear contribution   :      0.12915      11.09354      -0.08269
                        -----------------------------------------
Total Dipole Moment    :      0.11726       1.39388      -0.15183
                        -----------------------------------------
Magnitude (a.u.)       :      1.40702
Magnitude (Debye)      :      3.57636

Rotational constants in cm-1:     0.009419     0.003984     0.003645
Rotational constants in MHz :   282.387699   119.446101   109.275166

                             ****ORCA TERMINATED NORMALLY****
TOTAL RUN TIME: 0 days 0 hours 1 minutes 54 seconds 396 msec
