                         Program Version 4.1.2  - RELEASE  -
|  1> ! bp86 def2-svp
|  2>
|  3> * xyzfile 2 3 geom.xyz
|  4>
|  5> %eprnmr
|  6> nuclei = all Fe {fgrad, rho}
|  7> end
|  8>
|  9>
| 10>                          ****END OF INPUT****

CARTESIAN COORDINATES (ANGSTROEM)
---------------------------------
  Fe    -0.003431   -0.035901    0.191704
  O      0.007226    0.008325    1.846502
  N      1.554048   -1.407632    0.344106
  N      1.538234    1.424943    0.103493
  N     -1.556695    1.408550    0.125309
  N     -1.550508   -1.413455    0.366576
  C      2.629995   -0.616975    1.036221
  H      3.553741   -1.206278    1.047926
  H      2.295283   -0.456264    2.061576
  C      2.848007    0.693273    0.323818
  H      3.304020    0.537291   -0.654881
  H      3.517827    1.331291    0.908336
  C      1.299296    2.358097    1.268944
  H      2.142497    3.059987    1.290626
  H      1.323589    1.747352    2.171574
  C     -0.010204    3.147269    1.201094
  H     -0.008442    3.803428    2.078581
  H     -0.016658    3.808972    0.330327
  C     -1.313520    2.349732    1.282942
  H     -1.328780    1.743119    2.188713
  H     -2.161832    3.045389    1.307157
  C     -2.860670    0.672616    0.365884
  H     -3.524324    1.308720    0.959081
  H     -3.329688    0.514086   -0.606036
  C     -2.624450   -0.634941    1.074897
  H     -3.543122   -1.231939    1.096083
  H     -2.276773   -0.473980    2.095942
  C     -1.243598   -2.590231    1.255122
  H     -2.128580   -3.237182    1.239164
  H     -1.126331   -2.186786    2.262724
  C      0.009337   -3.361570    0.881650
  H      0.005865   -3.682628   -0.164772
  H      0.014308   -4.276464    1.482997
  C      1.260259   -2.580701    1.243238
  H      1.146278   -2.171486    2.248783
  H      2.148217   -3.223356    1.225556
  C      2.072583   -1.920958   -0.962204
  H      2.927686   -2.577855   -0.768149
  H      2.384376   -1.088318   -1.588696
  H      1.288132   -2.475332   -1.474577
  C      1.749116    2.256044   -1.129322
  H      2.575275    2.950770   -0.940974
  H      0.863088    2.832749   -1.375374
  H      2.008375    1.615787   -1.970115
  C     -1.790175    2.227509   -1.110158
  H     -2.629967    2.905430   -0.919636
  H     -2.041593    1.576254   -1.945458
  H     -0.915296    2.818733   -1.361444
  C     -2.077404   -1.919902   -0.938992
  H     -2.937114   -2.570540   -0.743326
  H     -1.298230   -2.478880   -1.454438
  H     -2.384777   -1.083477   -1.562879
  N      0.008603   -0.084785   -1.838313
  C      0.027599   -0.059543   -2.996176
  C      0.040635   -0.024538   -4.439096
  H     -0.567866    0.818920   -4.779512
  H     -0.371870   -0.960015   -4.827223
  H      1.066353    0.095957   -4.799441

 Total Charge           Charge          ....    2
 Multiplicity           Mult            ....    3
 Number of Electrons    NEL             ....  198
 Basis Dimension        Dim             ....  514

ORBITAL ENERGIES
----------------
                 SPIN UP ORBITALS
  NO   OCC          E(Eh)            E(eV)
   0   1.0000    -255.100330     -6941.6329
   1   1.0000     -29.867197      -812.7277
   2   1.0000     -25.828168      -702.8202
   3   1.0000     -25.811031      -702.3539
   4   1.0000     -25.809794      -702.3202
   5   1.0000     -19.017423      -517.4904
   6   1.0000     -14.317484      -389.5985
   7   1.0000     -14.317342      -389.5947
   8   1.0000     -14.315964      -389.5572
   9   1.0000     -14.315880      -389.5549
  10   1.0000     -14.301913      -389.1748
  11   1.0000     -10.248232      -278.8686
  12   1.0000     -10.200198      -277.5615
  13   1.0000     -10.187949      -277.2282
  14   1.0000     -10.187694      -277.2212
  15   1.0000     -10.183673      -277.1118
  16   1.0000     -10.183639      -277.1109
  17   1.0000     -10.182409      -277.0774
  18   1.0000     -10.182226      -277.0725
  19   1.0000     -10.181558      -277.0543
  20   1.0000     -10.181471      -277.0519
  21   1.0000     -10.176880      -276.9270
  22   1.0000     -10.176798      -276.9248
  23   1.0000     -10.175910      -276.9006
  24   1.0000     -10.175731      -276.8957
  25   1.0000     -10.148315      -276.1497
  26   1.0000     -10.146778      -276.1079
  27   1.0000      -3.567789       -97.0845
  28   1.0000      -2.409465       -65.5649
  29   1.0000      -2.370588       -64.5070
  30   1.0000      -2.367201       -64.4148
  31   1.0000      -1.123825       -30.5808
  32   1.0000      -1.112522       -30.2733
  33   1.0000      -1.111958       -30.2579
  34   1.0000      -1.098423       -29.8896
  35   1.0000      -1.090586       -29.6763
  36   1.0000      -1.052553       -28.6414
  37   1.0000      -0.961440       -26.1621
  38   1.0000      -0.954612       -25.9763
  39   1.0000      -0.940373       -25.5889
  40   1.0000      -0.929416       -25.2907
  41   1.0000      -0.916107       -24.9285
  42   1.0000      -0.885712       -24.1015
  43   1.0000      -0.877625       -23.8814
  44   1.0000      -0.872868       -23.7519
  45   1.0000      -0.846036       -23.0218
  46   1.0000      -0.835163       -22.7259
  47   1.0000      -0.800087       -21.7715
  48   1.0000      -0.787457       -21.4278
  49   1.0000      -0.765940       -20.8423
  50   1.0000      -0.764851       -20.8126
  51   1.0000      -0.748741       -20.3743
  52   1.0000      -0.723270       -19.6812
  53   1.0000      -0.709359       -19.3027
  54   1.0000      -0.705928       -19.2093
  55   1.0000      -0.701229       -19.0814
  56   1.0000      -0.694956       -18.9107
  57   1.0000      -0.692468       -18.8430
  58   1.0000      -0.687339       -18.7035
  59   1.0000      -0.676239       -18.4014
  60   1.0000      -0.673652       -18.3310
  61   1.0000      -0.668237       -18.1836
  62   1.0000      -0.666376       -18.1330
  63   1.0000      -0.662832       -18.0366
  64   1.0000      -0.660661       -17.9775
  65   1.0000      -0.653775       -17.7901
  66   1.0000      -0.639733       -17.4080
  67   1.0000      -0.637569       -17.3491
  68   1.0000      -0.628371       -17.0988
  69   1.0000      -0.622040       -16.9266
  70   1.0000      -0.620396       -16.8818
  71   1.0000      -0.615250       -16.7418
  72   1.0000      -0.603055       -16.4100
  73   1.0000      -0.600424       -16.3384
  74   1.0000      -0.595570       -16.2063
  75   1.0000      -0.589238       -16.0340
  76   1.0000      -0.588450       -16.0125
  77   1.0000      -0.579088       -15.7578
  78   1.0000      -0.577816       -15.7232
  79   1.0000      -0.572040       -15.5660
  80   1.0000      -0.569611       -15.4999
  81   1.0000      -0.568916       -15.4810
  82   1.0000      -0.568569       -15.4716
  83   1.0000      -0.561439       -15.2775
  84   1.0000      -0.561316       -15.2742
  85   1.0000      -0.557190       -15.1619
  86   1.0000      -0.552304       -15.0289
  87   1.0000      -0.547472       -14.8975
  88   1.0000      -0.542030       -14.7494
  89   1.0000      -0.539842       -14.6898
  90   1.0000      -0.537218       -14.6185
  91   1.0000      -0.532808       -14.4984
  92   1.0000      -0.529556       -14.4099
  93   1.0000      -0.525074       -14.2880
  94   1.0000      -0.522265       -14.2115
  95   1.0000      -0.501040       -13.6340
  96   1.0000      -0.494135       -13.4461
  97   1.0000      -0.451141       -12.2762
  98   1.0000      -0.435814       -11.8591
  99   1.0000      -0.433092       -11.7850
 100   0.0000      -0.361156        -9.8276
 101   0.0000      -0.333095        -9.0640
 102   0.0000      -0.287212        -7.8154
 103   0.0000      -0.286385        -7.7929
 104   0.0000      -0.225165        -6.1271

                 SPIN DOWN ORBITALS
  NO   OCC          E(Eh)            E(eV)
   0   1.0000    -255.100102     -6941.6267
   1   1.0000     -29.843403      -812.0803
   2   1.0000     -25.805359      -702.1995
   3   1.0000     -25.795490      -701.9310
   4   1.0000     -25.794157      -701.8947
   5   1.0000     -18.999259      -516.9961
   6   1.0000     -14.317823      -389.6078
   7   1.0000     -14.317672      -389.6037
   8   1.0000     -14.316247      -389.5649
   9   1.0000     -14.316159      -389.5625
  10   1.0000     -14.302479      -389.1902
  11   1.0000     -10.247529      -278.8494
  12   1.0000     -10.200238      -277.5626
  13   1.0000     -10.187951      -277.2282
  14   1.0000     -10.187696      -277.2213
  15   1.0000     -10.183597      -277.1098
  16   1.0000     -10.183564      -277.1089
  17   1.0000     -10.182421      -277.0778
  18   1.0000     -10.182239      -277.0728
  19   1.0000     -10.181567      -277.0545
  20   1.0000     -10.181479      -277.0521
  21   1.0000     -10.176820      -276.9253
  22   1.0000     -10.176736      -276.9231
  23   1.0000     -10.175767      -276.8967
  24   1.0000     -10.175584      -276.8917
  25   1.0000     -10.148330      -276.1501
  26   1.0000     -10.146793      -276.1083
  27   1.0000      -3.513984       -95.6204
  28   1.0000      -2.343055       -63.7578
  29   1.0000      -2.325543       -63.2812
  30   1.0000      -2.321857       -63.1809
  31   1.0000      -1.123223       -30.5645
  32   1.0000      -1.112609       -30.2756
  33   1.0000      -1.111985       -30.2586
  34   1.0000      -1.098777       -29.8993
  35   1.0000      -1.090955       -29.6864
  36   1.0000      -1.014108       -27.5953
  37   1.0000      -0.961324       -26.1590
  38   1.0000      -0.954350       -25.9692
  39   1.0000      -0.940205       -25.5843
  40   1.0000      -0.929398       -25.2902
  41   1.0000      -0.915793       -24.9200
  42   1.0000      -0.885646       -24.0997
  43   1.0000      -0.877561       -23.8797
  44   1.0000      -0.872852       -23.7515
  45   1.0000      -0.845972       -23.0201
  46   1.0000      -0.835124       -22.7249
  47   1.0000      -0.800202       -21.7746
  48   1.0000      -0.787424       -21.4269
  49   1.0000      -0.765744       -20.8370
  50   1.0000      -0.764673       -20.8078
  51   1.0000      -0.748647       -20.3717
  52   1.0000      -0.721964       -19.6457
  53   1.0000      -0.708958       -19.2917
  54   1.0000      -0.705594       -19.2002
  55   1.0000      -0.700125       -19.0514
  56   1.0000      -0.694687       -18.9034
  57   1.0000      -0.691743       -18.8233
  58   1.0000      -0.687072       -18.6962
  59   1.0000      -0.676212       -18.4007
  60   1.0000      -0.672096       -18.2887
  61   1.0000      -0.667612       -18.1667
  62   1.0000      -0.665412       -18.1068
  63   1.0000      -0.662062       -18.0156
  64   1.0000      -0.660271       -17.9669
  65   1.0000      -0.653656       -17.7869
  66   1.0000      -0.639169       -17.3927
  67   1.0000      -0.636937       -17.3319
  68   1.0000      -0.627401       -17.0725
  69   1.0000      -0.621561       -16.9135
  70   1.0000      -0.620161       -16.8754
  71   1.0000      -0.615157       -16.7393
  72   1.0000      -0.602902       -16.4058
  73   1.0000      -0.600251       -16.3337
  74   1.0000      -0.594727       -16.1833
  75   1.0000      -0.588331       -16.0093
  76   1.0000      -0.584267       -15.8987
  77   1.0000      -0.578519       -15.7423
  78   1.0000      -0.577899       -15.7254
  79   1.0000      -0.570666       -15.5286
  80   1.0000      -0.568795       -15.4777
  81   1.0000      -0.568198       -15.4615
  82   1.0000      -0.567158       -15.4332
  83   1.0000      -0.560824       -15.2608
  84   1.0000      -0.558594       -15.2001
  85   1.0000      -0.548237       -14.9183
  86   1.0000      -0.545308       -14.8386
  87   1.0000      -0.539878       -14.6908
  88   1.0000      -0.539643       -14.6844
  89   1.0000      -0.538444       -14.6518
  90   1.0000      -0.530373       -14.4322
  91   1.0000      -0.523169       -14.2362
  92   1.0000      -0.517132       -14.0719
  93   1.0000      -0.504601       -13.7309
  94   1.0000      -0.500074       -13.6077
  95   1.0000      -0.484430       -13.1820
  96   1.0000      -0.483125       -13.1465
  97   1.0000      -0.425846       -11.5879
  98   0.0000      -0.373422       -10.1613
  99   0.0000      -0.370414       -10.0795
 100   0.0000      -0.335674        -9.1342
 101   0.0000      -0.312785        -8.5113
 102   0.0000      -0.283005        -7.7010

MULLIKEN ATOMIC CHARGES AND SPIN POPULATIONS
--------------------------------------------
   0 Fe:    0.399066    1.307727
   1 O :   -0.287852    0.763794
   2 N :   -0.388580   -0.025492
   3 N :   -0.378557   -0.021834
   4 N :   -0.379437   -0.022126
   5 N :   -0.387951   -0.025983
   6 C :    0.097571    0.001324
   7 H :    0.079511   -0.002220
   8 H :    0.086617    0.001679
   9 C :    0.065739    0.001576
  10 H :    0.066883    0.000450
  11 H :    0.086944   -0.000643
  12 C :    0.060130    0.007036
  13 H :    0.070499   -0.003234
  14 H :    0.083467    0.001520
  15 C :   -0.020496    0.000892
  16 H :    0.091674    0.000358
  17 H :    0.056528    0.000621
  18 C :    0.060025    0.006906
  19 H :    0.083124    0.001515
  20 H :    0.070218   -0.003232
  21 C :    0.064270    0.001563
  22 H :    0.087447   -0.000637
  23 H :    0.067525    0.000437
  24 C :    0.097849    0.001337
  25 H :    0.079756   -0.002205
  26 H :    0.086685    0.001650
  27 C :    0.059062    0.003385
  28 H :    0.069153   -0.002999
  29 H :    0.072104    0.000641
  30 C :    0.029841   -0.000242
  31 H :    0.044195    0.000956
  32 H :    0.086855    0.000196
  33 C :    0.060353    0.003430
  34 H :    0.072322    0.000670
  35 H :    0.069050   -0.002980
  36 C :    0.075388    0.000161
  37 H :    0.084666   -0.002119
  38 H :    0.052895   -0.000090
  39 H :    0.061979   -0.000108
  40 C :    0.078522    0.000185
  41 H :    0.081835   -0.001988
  42 H :    0.050508   -0.000129
  43 H :    0.058510    0.000090
  44 C :    0.076903    0.000163
  45 H :    0.082240   -0.002055
  46 H :    0.060485    0.000087
  47 H :    0.050390   -0.000123
  48 C :    0.072808    0.000220
  49 H :    0.085104   -0.002151
  50 H :    0.062844   -0.000116
  51 H :    0.054420   -0.000105
  52 N :    0.081043   -0.036791
  53 C :   -0.270490    0.046992
  54 C :    0.048864   -0.003115
  55 H :    0.129819    0.001748
  56 H :    0.131847    0.001709
  57 H :    0.127831    0.001698
Sum of atomic charges         :    2.0000000

LOEWDIN ATOMIC CHARGES AND SPIN POPULATIONS
-------------------------------------------
   0 Fe:    0.116995    1.269771
   1 O :   -0.190262    0.756449
   2 N :    0.021862   -0.016162
   3 N :    0.004682   -0.013718
   4 N :    0.005319   -0.013834
   5 N :    0.022410   -0.016460
   6 C :    0.034336    0.002933
   7 H :    0.050238   -0.001316
   8 H :    0.044178    0.001338
   9 C :    0.039314   -0.000263
  10 H :    0.037250    0.000270
  11 H :    0.055924   -0.000532
  12 C :    0.037661    0.006255
  13 H :    0.040603   -0.001754
  14 H :    0.038174    0.001921
  15 C :   -0.044153   -0.000308
  16 H :    0.074035    0.000313
  17 H :    0.036408    0.000580
  18 C :    0.037822    0.006090
  19 H :    0.038355    0.001888
  20 H :    0.040704   -0.001759
  21 C :    0.039304   -0.000272
  22 H :    0.055957   -0.000529
  23 H :    0.037597    0.000265
  24 C :    0.034503    0.002908
  25 H :    0.050370   -0.001311
  26 H :    0.044148    0.001341
  27 C :    0.042311    0.002296
  28 H :    0.043693   -0.001988
  29 H :    0.043351    0.000816
  30 C :   -0.042217   -0.000731
  31 H :    0.034947    0.000635
  32 H :    0.073337    0.000145
  33 C :    0.042589    0.002397
  34 H :    0.043171    0.000843
  35 H :    0.043525   -0.001967
  36 C :    0.025341   -0.000749
  37 H :    0.047799   -0.001644
  38 H :    0.027151   -0.000141
  39 H :    0.032369   -0.000167
  40 C :    0.028566   -0.000570
  41 H :    0.049811   -0.001485
  42 H :    0.026748   -0.000198
  43 H :    0.029215    0.000029
  44 C :    0.028274   -0.000607
  45 H :    0.049867   -0.001537
  46 H :    0.029653    0.000002
  47 H :    0.026621   -0.000192
  48 C :    0.025113   -0.000709
  49 H :    0.047954   -0.001670
  50 H :    0.032753   -0.000171
  51 H :    0.027492   -0.000152
  52 N :    0.005678   -0.019151
  53 C :    0.094776    0.038206
  54 C :   -0.049747   -0.000218
  55 H :    0.095060    0.001547
  56 H :    0.096484    0.001523
  57 H :    0.094581    0.001501

  Mayer bond orders larger than 0.1
B(  0-Fe,  1-O ) :   1.9195 B(  0-Fe,  2-N ) :   0.6022 B(  0-Fe,  3-N ) :   0.5739
B(  0-Fe,  4-N ) :   0.5764 B(  0-Fe,  5-N ) :   0.6041 B(  0-Fe, 52-N ) :   0.4943
B(  2-N ,  6-C ) :   0.8836 B(  2-N , 33-C ) :   0.8957 B(  2-N , 36-C ) :   0.9176
B(  3-N ,  9-C ) :   0.9254 B(  3-N , 12-C ) :   0.8749 B(  3-N , 40-C ) :   0.9331
B(  4-N , 18-C ) :   0.8748 B(  4-N , 21-C ) :   0.9254 B(  4-N , 44-C ) :   0.9322
B(  5-N , 24-C ) :   0.8840 B(  5-N , 27-C ) :   0.8965 B(  5-N , 48-C ) :   0.9159
B(  6-C ,  7-H ) :   0.9240 B(  6-C ,  8-H ) :   0.9157 B(  6-C ,  9-C ) :   1.1093
B(  9-C , 10-H ) :   0.9287 B(  9-C , 11-H ) :   0.9083 B( 12-C , 13-H ) :   0.9258
B( 12-C , 14-H ) :   0.9186 B( 12-C , 15-C ) :   1.0970 B( 15-C , 16-H ) :   0.9033
B( 15-C , 17-H ) :   0.9326 B( 15-C , 18-C ) :   1.0972 B( 18-C , 19-H ) :   0.9190
B( 18-C , 20-H ) :   0.9259 B( 21-C , 22-H ) :   0.9081 B( 21-C , 23-H ) :   0.9289
B( 21-C , 24-C ) :   1.1088 B( 24-C , 25-H ) :   0.9243 B( 24-C , 26-H ) :   0.9156
B( 27-C , 28-H ) :   0.9253 B( 27-C , 29-H ) :   0.9297 B( 27-C , 30-C ) :   1.0953
B( 30-C , 31-H ) :   0.9220 B( 30-C , 32-H ) :   0.8943 B( 30-C , 33-C ) :   1.0952
B( 33-C , 34-H ) :   0.9297 B( 33-C , 35-H ) :   0.9257 B( 36-C , 37-H ) :   0.9469
B( 36-C , 38-H ) :   0.9539 B( 36-C , 39-H ) :   0.9567 B( 40-C , 41-H ) :   0.9421
B( 40-C , 42-H ) :   0.9560 B( 40-C , 43-H ) :   0.9536 B( 44-C , 45-H ) :   0.9416
B( 44-C , 46-H ) :   0.9537 B( 44-C , 47-H ) :   0.9557 B( 48-C , 49-H ) :   0.9469
B( 48-C , 50-H ) :   0.9565 B( 48-C , 51-H ) :   0.9537 B( 52-N , 53-C ) :   2.6805
B( 53-C , 54-C ) :   1.1846 B( 54-C , 55-H ) :   0.9096 B( 54-C , 56-H ) :   0.9066
B( 54-C , 57-H ) :   0.9086

FINAL SINGLE POINT ENERGY     -2242.313957943472

DIPOLE MOMENT
-------------
                                X             Y             Z
Electronic contribution:      0.01619      -1.38411       3.89471
Nuclear contribution   :     -0.01317       1.33479      -6.39450
                        -----------------------------------------
Total Dipole Moment    :      0.00301      -0.04932      -2.49979
                        -----------------------------------------
Magnitude (a.u.)       :      2.50028
Magnitude (Debye)      :      6.35520

Rotational constants in cm-1:     0.009961     0.009065     0.008405
Rotational constants in MHz :   298.636605   271.753690   251.979874

                             ****ORCA TERMINATED NORMALLY****
TOTAL RUN TIME: 0 days 0 hours 3 minutes 33 seconds 196 msec
