                         Program Version 4.1.2  - RELEASE  -
|  1> ! bp86 def2-svp
|  2>
|  3> * xyzfile 1 4  geom.xyz
|  4>
|  5> %eprnmr
|  6> nuclei = all Fe {fgrad, rho}
|  7> end
|  8>
|  9>
| 10>                          ****END OF INPUT****

CARTESIAN COORDINATES (ANGSTROEM)
---------------------------------
  Fe    -0.000012   -0.000009   -0.160746
  N     -1.385327    1.390293    0.079346
  C     -1.217798    2.728560    0.365207
  C     -2.464641    3.428544    0.225698
  C     -3.388268    2.514285   -0.200458
  C     -2.716603    1.245949   -0.259472
  C     -3.345839    0.014807   -0.421668
  C     -2.739430   -1.210954   -0.146680
  C     -3.441868   -2.445525    0.060297
  C     -2.515234   -3.363390    0.472450
  C     -1.241282   -2.699237    0.467420
  N     -1.396020   -1.371111    0.116664
  C     -0.011684   -3.331002    0.627756
  C      1.217681   -2.728590    0.365339
  C      2.464481   -3.428676    0.225953
  C      3.388401   -2.514326   -0.199344
  C      2.716693   -1.246038   -0.259021
  N      1.385292   -1.390347    0.079427
  C      3.345964   -0.014870   -0.420827
  C      2.739504    1.210891   -0.145963
  C      3.441953    2.445427    0.061300
  C      2.515175    3.363436    0.472753
  C      1.241183    2.699340    0.467241
  N      1.395962    1.371166    0.116696
  C      0.011561    3.331137    0.627330
  O      0.000030   -0.000032   -1.798294
  H      2.670136    4.401754    0.735383
  H      4.508556    2.574945   -0.065920
  H     -2.602016    4.485634    0.411228
  H     -4.436405    2.671848   -0.418112
  H     -4.508358   -2.575211   -0.067700
  H     -2.670331   -4.401605    0.735404
  H      4.436569   -2.671916   -0.416828
  H      2.601692   -4.485788    0.411482
  H     -4.404442    0.012686   -0.660975
  H      0.013035    4.387373    0.876378
  H     -0.013165   -4.387233    0.876828
  H      4.404558   -0.012702   -0.660198

 Total Charge           Charge          ....    1
 Multiplicity           Mult            ....    4
 Number of Electrons    NEL             ....  193
 Basis Dimension        Dim             ....  441

ORBITAL ENERGIES
----------------
                 SPIN UP ORBITALS
  NO   OCC          E(Eh)            E(eV)
   0   1.0000    -255.017453     -6939.3777
   1   1.0000     -29.791645      -810.6719
   2   1.0000     -25.742226      -700.4816
   3   1.0000     -25.739641      -700.4112
   4   1.0000     -25.737317      -700.3480
   5   1.0000     -18.928169      -515.0617
   6   1.0000     -14.179836      -385.8530
   7   1.0000     -14.179695      -385.8491
   8   1.0000     -14.179180      -385.8351
   9   1.0000     -14.179094      -385.8328
  10   1.0000     -10.091337      -274.5992
  11   1.0000     -10.091332      -274.5991
  12   1.0000     -10.091251      -274.5969
  13   1.0000     -10.091231      -274.5964
  14   1.0000     -10.090461      -274.5754
  15   1.0000     -10.090452      -274.5752
  16   1.0000     -10.089995      -274.5627
  17   1.0000     -10.089976      -274.5622
  18   1.0000     -10.075746      -274.1750
  19   1.0000     -10.075633      -274.1719
  20   1.0000     -10.075111      -274.1577
  21   1.0000     -10.075080      -274.1569
  22   1.0000     -10.049712      -273.4666
  23   1.0000     -10.049649      -273.4649
  24   1.0000     -10.049593      -273.4633
  25   1.0000     -10.049585      -273.4631
  26   1.0000     -10.049390      -273.4578
  27   1.0000     -10.049329      -273.4562
  28   1.0000     -10.049251      -273.4540
  29   1.0000     -10.049168      -273.4518
  30   1.0000      -3.495488       -95.1171
  31   1.0000      -2.319285       -63.1110
  32   1.0000      -2.307996       -62.8038
  33   1.0000      -2.301666       -62.6315
  34   1.0000      -1.030298       -28.0358
  35   1.0000      -1.020131       -27.7592
  36   1.0000      -1.019856       -27.7517
  37   1.0000      -1.010205       -27.4891
  38   1.0000      -0.949964       -25.8498
  39   1.0000      -0.887714       -24.1559
  40   1.0000      -0.861338       -23.4382
  41   1.0000      -0.861290       -23.4369
  42   1.0000      -0.837745       -22.7962
  43   1.0000      -0.831047       -22.6139
  44   1.0000      -0.830783       -22.6068
  45   1.0000      -0.827228       -22.5100
  46   1.0000      -0.816229       -22.2107
  47   1.0000      -0.787162       -21.4198
  48   1.0000      -0.731706       -19.9107
  49   1.0000      -0.731501       -19.9052
  50   1.0000      -0.676754       -18.4154
  51   1.0000      -0.660885       -17.9836
  52   1.0000      -0.660350       -17.9690
  53   1.0000      -0.657991       -17.9048
  54   1.0000      -0.657778       -17.8990
  55   1.0000      -0.631423       -17.1819
  56   1.0000      -0.630256       -17.1501
  57   1.0000      -0.608178       -16.5494
  58   1.0000      -0.607871       -16.5410
  59   1.0000      -0.603828       -16.4310
  60   1.0000      -0.587690       -15.9919
  61   1.0000      -0.587225       -15.9792
  62   1.0000      -0.547559       -14.8998
  63   1.0000      -0.536774       -14.6064
  64   1.0000      -0.535895       -14.5825
  65   1.0000      -0.529474       -14.4077
  66   1.0000      -0.528515       -14.3816
  67   1.0000      -0.514438       -13.9986
  68   1.0000      -0.514202       -13.9922
  69   1.0000      -0.511242       -13.9116
  70   1.0000      -0.501902       -13.6575
  71   1.0000      -0.499930       -13.6038
  72   1.0000      -0.497592       -13.5402
  73   1.0000      -0.493164       -13.4197
  74   1.0000      -0.493011       -13.4155
  75   1.0000      -0.491174       -13.3655
  76   1.0000      -0.482538       -13.1305
  77   1.0000      -0.471902       -12.8411
  78   1.0000      -0.471521       -12.8307
  79   1.0000      -0.470486       -12.8026
  80   1.0000      -0.463496       -12.6124
  81   1.0000      -0.462444       -12.5837
  82   1.0000      -0.462136       -12.5753
  83   1.0000      -0.460978       -12.5438
  84   1.0000      -0.441391       -12.0109
  85   1.0000      -0.441371       -12.0103
  86   1.0000      -0.440454       -11.9854
  87   1.0000      -0.400736       -10.9046
  88   1.0000      -0.400277       -10.8921
  89   1.0000      -0.394528       -10.7356
  90   1.0000      -0.373920       -10.1749
  91   1.0000      -0.362036        -9.8515
  92   1.0000      -0.361790        -9.8448
  93   1.0000      -0.360780        -9.8173
  94   1.0000      -0.336364        -9.1529
  95   1.0000      -0.330389        -8.9903
  96   1.0000      -0.329236        -8.9590
  97   1.0000      -0.327253        -8.9050
  98   0.0000      -0.263519        -7.1707
  99   0.0000      -0.257947        -7.0191
 100   0.0000      -0.250336        -6.8120
 101   0.0000      -0.249906        -6.8003
 102   0.0000      -0.198623        -5.4048

                 SPIN DOWN ORBITALS
  NO   OCC          E(Eh)            E(eV)
   0   1.0000    -255.017194     -6939.3706
   1   1.0000     -29.761711      -809.8573
   2   1.0000     -25.717328      -699.8041
   3   1.0000     -25.717316      -699.8037
   4   1.0000     -25.716580      -699.7837
   5   1.0000     -18.908099      -514.5155
   6   1.0000     -14.178966      -385.8293
   7   1.0000     -14.178850      -385.8261
   8   1.0000     -14.178269      -385.8103
   9   1.0000     -14.178200      -385.8084
  10   1.0000     -10.091618      -274.6069
  11   1.0000     -10.091612      -274.6067
  12   1.0000     -10.091504      -274.6038
  13   1.0000     -10.091475      -274.6030
  14   1.0000     -10.090753      -274.5833
  15   1.0000     -10.090712      -274.5822
  16   1.0000     -10.090336      -274.5720
  17   1.0000     -10.090307      -274.5712
  18   1.0000     -10.073778      -274.1214
  19   1.0000     -10.073703      -274.1194
  20   1.0000     -10.073282      -274.1079
  21   1.0000     -10.073257      -274.1073
  22   1.0000     -10.049646      -273.4648
  23   1.0000     -10.049593      -273.4633
  24   1.0000     -10.049530      -273.4616
  25   1.0000     -10.049503      -273.4609
  26   1.0000     -10.049327      -273.4561
  27   1.0000     -10.049273      -273.4546
  28   1.0000     -10.049203      -273.4527
  29   1.0000     -10.049149      -273.4512
  30   1.0000      -3.428603       -93.2970
  31   1.0000      -2.248170       -61.1758
  32   1.0000      -2.243896       -61.0595
  33   1.0000      -2.241685       -60.9993
  34   1.0000      -1.029136       -28.0042
  35   1.0000      -1.019187       -27.7335
  36   1.0000      -1.018911       -27.7260
  37   1.0000      -1.009356       -27.4660
  38   1.0000      -0.905672       -24.6446
  39   1.0000      -0.885410       -24.0932
  40   1.0000      -0.859213       -23.3804
  41   1.0000      -0.859035       -23.3755
  42   1.0000      -0.836724       -22.7684
  43   1.0000      -0.830289       -22.5933
  44   1.0000      -0.830035       -22.5864
  45   1.0000      -0.826477       -22.4896
  46   1.0000      -0.812756       -22.1162
  47   1.0000      -0.787109       -21.4183
  48   1.0000      -0.730437       -19.8762
  49   1.0000      -0.730293       -19.8723
  50   1.0000      -0.676343       -18.4042
  51   1.0000      -0.659970       -17.9587
  52   1.0000      -0.658203       -17.9106
  53   1.0000      -0.657566       -17.8933
  54   1.0000      -0.657351       -17.8874
  55   1.0000      -0.631273       -17.1778
  56   1.0000      -0.628850       -17.1119
  57   1.0000      -0.607545       -16.5321
  58   1.0000      -0.607307       -16.5257
  59   1.0000      -0.601845       -16.3770
  60   1.0000      -0.586504       -15.9596
  61   1.0000      -0.586033       -15.9468
  62   1.0000      -0.545849       -14.8533
  63   1.0000      -0.535706       -14.5773
  64   1.0000      -0.533349       -14.5132
  65   1.0000      -0.525119       -14.2892
  66   1.0000      -0.524470       -14.2716
  67   1.0000      -0.512446       -13.9444
  68   1.0000      -0.512125       -13.9356
  69   1.0000      -0.510301       -13.8860
  70   1.0000      -0.499432       -13.5902
  71   1.0000      -0.497701       -13.5431
  72   1.0000      -0.492464       -13.4006
  73   1.0000      -0.492031       -13.3888
  74   1.0000      -0.491800       -13.3826
  75   1.0000      -0.487370       -13.2620
  76   1.0000      -0.479673       -13.0526
  77   1.0000      -0.470651       -12.8071
  78   1.0000      -0.470143       -12.7932
  79   1.0000      -0.463254       -12.6058
  80   1.0000      -0.457122       -12.4389
  81   1.0000      -0.447528       -12.1779
  82   1.0000      -0.438312       -11.9271
  83   1.0000      -0.436980       -11.8908
  84   1.0000      -0.436033       -11.8651
  85   1.0000      -0.411432       -11.1956
  86   1.0000      -0.410067       -11.1585
  87   1.0000      -0.396335       -10.7848
  88   1.0000      -0.395402       -10.7594
  89   1.0000      -0.377151       -10.2628
  90   1.0000      -0.359613        -9.7856
  91   1.0000      -0.352234        -9.5848
  92   1.0000      -0.349668        -9.5150
  93   1.0000      -0.337396        -9.1810
  94   1.0000      -0.328018        -8.9258
  95   0.0000      -0.321694        -8.7537
  96   0.0000      -0.263858        -7.1799
  97   0.0000      -0.260914        -7.0998
  98   0.0000      -0.243103        -6.6152
  99   0.0000      -0.241920        -6.5830

MULLIKEN ATOMIC CHARGES AND SPIN POPULATIONS
--------------------------------------------
   0 Fe:    0.559618    1.559619
   1 N :   -0.232186    0.039290
   2 C :    0.124729   -0.023169
   3 C :    0.012756    0.002312
   4 C :    0.021232    0.008200
   5 C :    0.124472   -0.029294
   6 C :    0.021449    0.162707
   7 C :    0.120405   -0.023575
   8 C :    0.016064    0.003682
   9 C :    0.018411    0.008135
  10 C :    0.124387   -0.027940
  11 N :   -0.231193    0.037058
  12 C :    0.003712    0.154319
  13 C :    0.124696   -0.022807
  14 C :    0.013226    0.000937
  15 C :    0.021041    0.009461
  16 C :    0.124626   -0.031014
  17 N :   -0.232539    0.039865
  18 C :    0.020974    0.164569
  19 C :    0.120513   -0.025303
  20 C :    0.016105    0.004463
  21 C :    0.018774    0.007240
  22 C :    0.124444   -0.028390
  23 N :   -0.231678    0.037892
  24 C :    0.003596    0.154678
  25 O :   -0.203148    0.843310
  26 H :    0.031856   -0.000116
  27 H :    0.033429   -0.000043
  28 H :    0.032677   -0.000029
  29 H :    0.032872   -0.000138
  30 H :    0.033439   -0.000023
  31 H :    0.031896   -0.000226
  32 H :    0.032878   -0.000214
  33 H :    0.032622    0.000097
  34 H :    0.034219   -0.006573
  35 H :    0.032678   -0.006145
  36 H :    0.032653   -0.006128
  37 H :    0.034294   -0.006706
Sum of atomic charges         :    1.0000000

LOEWDIN ATOMIC CHARGES AND SPIN POPULATIONS
-------------------------------------------
   0 Fe:    0.168648    1.527957
   1 N :   -0.017882    0.044331
   2 C :    0.021642   -0.007236
   3 C :   -0.002086    0.002082
   4 C :    0.002586    0.007153
   5 C :    0.022202   -0.012321
   6 C :    0.045924    0.126431
   7 C :    0.023155   -0.007727
   8 C :   -0.001075    0.003569
   9 C :    0.000911    0.006796
  10 C :    0.019762   -0.011005
  11 N :   -0.017709    0.042239
  12 C :    0.038034    0.120364
  13 C :    0.021679   -0.007088
  14 C :   -0.001779    0.001192
  15 C :    0.002453    0.007882
  16 C :    0.022279   -0.013318
  17 N :   -0.018161    0.044746
  18 C :    0.045571    0.127465
  19 C :    0.023238   -0.008750
  20 C :   -0.001050    0.003977
  21 C :    0.001171    0.006173
  22 C :    0.019830   -0.011341
  23 N :   -0.018141    0.042828
  24 C :    0.037964    0.120557
  25 O :   -0.078394    0.842951
  26 H :    0.049245   -0.000006
  27 H :    0.049255    0.000059
  28 H :    0.049116   -0.000029
  29 H :    0.049438    0.000070
  30 H :    0.049259    0.000057
  31 H :    0.049254   -0.000041
  32 H :    0.049436    0.000053
  33 H :    0.049101    0.000007
  34 H :    0.061423   -0.000049
  35 H :    0.061130    0.000025
  36 H :    0.061118    0.000028
  37 H :    0.061453   -0.000081

  Mayer bond orders larger than 0.1
B(  0-Fe,  1-N ) :   0.6919 B(  0-Fe, 11-N ) :   0.6933 B(  0-Fe, 17-N ) :   0.6918
B(  0-Fe, 23-N ) :   0.6931 B(  0-Fe, 25-O ) :   2.0169 B(  1-N ,  2-C ) :   1.2258
B(  1-N ,  5-C ) :   1.2098 B(  2-C ,  3-C ) :   1.1501 B(  2-C , 24-C ) :   1.2975
B(  3-C ,  4-C ) :   1.4892 B(  3-C , 28-H ) :   1.0000 B(  4-C ,  5-C ) :   1.1506
B(  4-C , 29-H ) :   0.9995 B(  5-C ,  6-C ) :   1.3160 B(  6-C ,  7-C ) :   1.2956
B(  6-C , 34-H ) :   0.9499 B(  7-C ,  8-C ) :   1.1545 B(  7-C , 11-N ) :   1.2280
B(  8-C ,  9-C ) :   1.4872 B(  8-C , 30-H ) :   1.0008 B(  9-C , 10-C ) :   1.1481
B(  9-C , 31-H ) :   0.9990 B( 10-C , 11-N ) :   1.2094 B( 10-C , 12-C ) :   1.3152
B( 12-C , 13-C ) :   1.2977 B( 12-C , 36-H ) :   0.9482 B( 13-C , 14-C ) :   1.1501
B( 13-C , 17-N ) :   1.2257 B( 14-C , 15-C ) :   1.4892 B( 14-C , 33-H ) :   1.0001
B( 15-C , 16-C ) :   1.1506 B( 15-C , 32-H ) :   0.9995 B( 16-C , 17-N ) :   1.2098
B( 16-C , 18-C ) :   1.3159 B( 18-C , 19-C ) :   1.2956 B( 18-C , 37-H ) :   0.9499
B( 19-C , 20-C ) :   1.1545 B( 19-C , 23-N ) :   1.2280 B( 20-C , 21-C ) :   1.4872
B( 20-C , 27-H ) :   1.0008 B( 21-C , 22-C ) :   1.1481 B( 21-C , 26-H ) :   0.9990
B( 22-C , 23-N ) :   1.2093 B( 22-C , 24-C ) :   1.3153 B( 24-C , 35-H ) :   0.9482

FINAL SINGLE POINT ENERGY     -2326.446797681583

DIPOLE MOMENT
-------------
                                X             Y             Z
Electronic contribution:     -0.00089      -0.00001      -1.37515
Nuclear contribution   :     -0.00007      -0.00009       2.23808
                        -----------------------------------------
Total Dipole Moment    :     -0.00096      -0.00010       0.86293
                        -----------------------------------------
Magnitude (a.u.)       :      0.86293
Magnitude (Debye)      :      2.19339

Rotational constants in cm-1:     0.008945     0.008852     0.004671
Rotational constants in MHz :   268.160967   265.386713   140.027729

                             ****ORCA TERMINATED NORMALLY****
TOTAL RUN TIME: 0 days 0 hours 3 minutes 58 seconds 628 msec
