                         Program Version 4.1.2  - RELEASE  -
|  1> ! bp86 def2-svp
|  2>
|  3> * xyzfile  -3 6 geom.xyz
|  4>
|  5> %eprnmr
|  6> nuclei = all Fe {fgrad, rho}
|  7> end
|  8>
|  9>
| 10>                          ****END OF INPUT****

CARTESIAN COORDINATES (ANGSTROEM)
---------------------------------
  Fe     0.000010    0.000005    0.000000
  F      1.977708    0.000020   -0.000007
  F     -1.977772    0.000020    0.000008
  F      0.000014    1.977718   -0.000001
  F      0.000014   -1.977750    0.000000
  F      0.000005   -0.000007    1.977728
  F      0.000021   -0.000006   -1.977728

 Total Charge           Charge          ....   -3
 Multiplicity           Mult            ....    6
 Number of Electrons    NEL             ....   83
 Basis Dimension        Dim             ....  115

ORBITAL ENERGIES
----------------
                 SPIN UP ORBITALS
  NO   OCC          E(Eh)            E(eV)
   0   1.0000    -254.273055     -6919.1216
   1   1.0000     -29.066884      -790.9501
   2   1.0000     -25.008206      -680.5079
   3   1.0000     -25.008206      -680.5079
   4   1.0000     -25.008206      -680.5079
   5   1.0000     -23.574226      -641.4873
   6   1.0000     -23.574079      -641.4833
   7   1.0000     -23.574078      -641.4833
   8   1.0000     -23.574078      -641.4833
   9   1.0000     -23.573928      -641.4792
  10   1.0000     -23.573927      -641.4792
  11   1.0000      -2.813939       -76.5712
  12   1.0000      -1.625313       -44.2270
  13   1.0000      -1.625313       -44.2270
  14   1.0000      -1.625313       -44.2270
  15   1.0000      -0.339450        -9.2369
  16   1.0000      -0.325865        -8.8672
  17   1.0000      -0.325864        -8.8672
  18   1.0000      -0.325863        -8.8672
  19   1.0000      -0.324322        -8.8253
  20   1.0000      -0.324321        -8.8252
  21   1.0000       0.236831         6.4445
  22   1.0000       0.236832         6.4445
  23   1.0000       0.254390         6.9223
  24   1.0000       0.263133         7.1602
  25   1.0000       0.263134         7.1602
  26   1.0000       0.263134         7.1603
  27   1.0000       0.296043         8.0557
  28   1.0000       0.296043         8.0557
  29   1.0000       0.296043         8.0558
  30   1.0000       0.343966         9.3598
  31   1.0000       0.343966         9.3598
  32   1.0000       0.343967         9.3598
  33   1.0000       0.344577         9.3764
  34   1.0000       0.344578         9.3764
  35   1.0000       0.344578         9.3764
  36   1.0000       0.357430         9.7262
  37   1.0000       0.357430         9.7262
  38   1.0000       0.357431         9.7262
  39   1.0000       0.359016         9.7693
  40   1.0000       0.359016         9.7693
  41   1.0000       0.359016         9.7693
  42   1.0000       0.417544        11.3620
  43   1.0000       0.417545        11.3620
  44   0.0000       0.522234        14.2107
  45   0.0000       0.785003        21.3610
  46   0.0000       0.878128        23.8951
  47   0.0000       0.878130        23.8951
  48   0.0000       0.878132        23.8952

                 SPIN DOWN ORBITALS
  NO   OCC          E(Eh)            E(eV)
   0   1.0000    -254.272509     -6919.1067
   1   1.0000     -28.986956      -788.7752
   2   1.0000     -24.947842      -678.8653
   3   1.0000     -24.947842      -678.8653
   4   1.0000     -24.947842      -678.8653
   5   1.0000     -23.570009      -641.3726
   6   1.0000     -23.569865      -641.3686
   7   1.0000     -23.569864      -641.3686
   8   1.0000     -23.569864      -641.3686
   9   1.0000     -23.569716      -641.3646
  10   1.0000     -23.569715      -641.3645
  11   1.0000      -2.632156       -71.6246
  12   1.0000      -1.447706       -39.3941
  13   1.0000      -1.447706       -39.3941
  14   1.0000      -1.447706       -39.3941
  15   1.0000      -0.330934        -9.0052
  16   1.0000      -0.317388        -8.6366
  17   1.0000      -0.317387        -8.6365
  18   1.0000      -0.317386        -8.6365
  19   1.0000      -0.315465        -8.5842
  20   1.0000      -0.315464        -8.5842
  21   1.0000       0.268509         7.3065
  22   1.0000       0.293622         7.9899
  23   1.0000       0.293623         7.9899
  24   1.0000       0.306366         8.3366
  25   1.0000       0.306366         8.3367
  26   1.0000       0.306367         8.3367
  27   1.0000       0.313980         8.5438
  28   1.0000       0.313981         8.5438
  29   1.0000       0.313981         8.5439
  30   1.0000       0.351239         9.5577
  31   1.0000       0.351239         9.5577
  32   1.0000       0.351240         9.5577
  33   1.0000       0.351975         9.5777
  34   1.0000       0.351975         9.5777
  35   1.0000       0.351975         9.5777
  36   1.0000       0.364280         9.9126
  37   1.0000       0.364280         9.9126
  38   1.0000       0.364281         9.9126
  39   0.0000       0.480182        13.0664
  40   0.0000       0.480182        13.0664
  41   0.0000       0.480182        13.0664
  42   0.0000       0.522995        14.2314
  43   0.0000       0.530937        14.4475

MULLIKEN ATOMIC CHARGES AND SPIN POPULATIONS
--------------------------------------------
   0 Fe:    0.886123    4.261592
   1 F :   -0.647678    0.123076
   2 F :   -0.647700    0.123058
   3 F :   -0.647682    0.123073
   4 F :   -0.647693    0.123064
   5 F :   -0.647686    0.123069
   6 F :   -0.647686    0.123069
Sum of atomic charges         :   -3.0000000

LOEWDIN ATOMIC CHARGES AND SPIN POPULATIONS
-------------------------------------------
   0 Fe:    0.534675    4.211255
   1 F :   -0.589096    0.131466
   2 F :   -0.589135    0.131447
   3 F :   -0.589103    0.131462
   4 F :   -0.589122    0.131453
   5 F :   -0.589110    0.131458
   6 F :   -0.589110    0.131458

  Mayer bond orders larger than 0.1
B(  0-Fe,  1-F ) :   0.5921 B(  0-Fe,  2-F ) :   0.5921 B(  0-Fe,  3-F ) :   0.5921
B(  0-Fe,  4-F ) :   0.5921 B(  0-Fe,  5-F ) :   0.5921 B(  0-Fe,  6-F ) :   0.5921

FINAL SINGLE POINT ENERGY     -1862.104330496593

DIPOLE MOMENT
-------------
                                X             Y             Z
Electronic contribution:      0.00015       0.00007       0.00000
Nuclear contribution   :     -0.00001      -0.00000       0.00000
                        -----------------------------------------
Total Dipole Moment    :      0.00014       0.00007       0.00000
                        -----------------------------------------
Magnitude (a.u.)       :      0.00015
Magnitude (Debye)      :      0.00039

Rotational constants in cm-1:     0.056715     0.056714     0.056714
Rotational constants in MHz :  1700.263074  1700.254657  1700.246200

                             ****ORCA TERMINATED NORMALLY****
TOTAL RUN TIME: 0 days 0 hours 0 minutes 5 seconds 624 msec
