                         Program Version 4.1.2  - RELEASE  -
|  1> ! bp86 def2-svp
|  2>
|  3> * xyzfile 1 1 geom.xyz
|  4>
|  5> %eprnmr
|  6> nuclei = all Fe {fgrad, rho}
|  7> end
|  8>
|  9>
| 10>                          ****END OF INPUT****

CARTESIAN COORDINATES (ANGSTROEM)
---------------------------------
  Fe    -0.010636   -0.716003    0.015193
  N     -0.042760   -2.359927    0.030934
  O     -0.061686   -3.504857    0.042343
  S     -1.659863   -0.495151   -1.535905
  S     -1.590919   -0.601401    1.731035
  S      1.553915   -0.658132   -1.714924
  S      1.664445   -0.527901    1.545733
  C     -5.532556   -0.189292    0.871724
  C     -5.569698   -0.075587   -0.524263
  C     -4.381712   -0.142477   -1.249798
  C     -3.169876   -0.287983   -0.563573
  C     -3.111323   -0.395587    0.835185
  C     -4.326363   -0.352476    1.546124
  C      3.082227   -0.410070   -0.844987
  C      3.159303   -0.296358    0.552016
  C      4.285757   -0.353256   -1.574588
  C      5.499970   -0.175258   -0.918501
  C      5.555459   -0.052951    0.476240
  C      4.379287   -0.132023    1.219897
  C     -1.226023    1.223650   -2.074233
  C      1.251444    1.185661    2.108119
  C      0.668496    1.994983    0.997940
  C     -0.613379    2.012660   -0.965422
  N      0.021203    1.319586    0.013748
  C     -0.622301    3.405351   -0.979640
  C      0.716130    3.386430    1.011630
  C      0.060246    4.102831    0.013880
  H     -6.455089   -0.165674    1.444119
  H     -6.517470    0.045086   -1.039736
  H     -4.392562   -0.089317   -2.335228
  H     -4.314415   -0.445267    2.628080
  H      4.256936   -0.451134   -2.655724
  H      6.414464   -0.145567   -1.503284
  H      6.509339    0.079849    0.977155
  H      4.407342   -0.072268    2.304692
  H     -2.122614    1.686083   -2.488925
  H     -0.494972    1.069820   -2.874533
  H      2.151770    1.628398    2.535723
  H      0.510214    1.036317    2.899768
  H     -1.145173    3.925295   -1.774483
  H      1.247834    3.892508    1.809409
  H      0.078592    5.187712    0.012458

 Total Charge           Charge          ....    1
 Multiplicity           Mult            ....    1
 Number of Electrons    NEL             ....  240
 Basis Dimension        Dim             ....  486

ORBITAL ENERGIES
----------------

  NO   OCC          E(Eh)            E(eV)
   0   2.0000    -254.995977     -6938.7933
   1   2.0000     -88.278718     -2402.1860
   2   2.0000     -88.278646     -2402.1841
   3   2.0000     -88.190565     -2399.7873
   4   2.0000     -88.190292     -2399.7799
   5   2.0000     -29.754127      -809.6510
   6   2.0000     -25.716436      -699.7798
   7   2.0000     -25.704238      -699.4479
   8   2.0000     -25.698153      -699.2823
   9   2.0000     -19.042563      -518.1745
  10   2.0000     -14.315193      -389.5362
  11   2.0000     -14.207442      -386.6042
  12   2.0000     -10.117507      -275.3114
  13   2.0000     -10.117395      -275.3083
  14   2.0000     -10.094662      -274.6897
  15   2.0000     -10.094649      -274.6894
  16   2.0000     -10.076688      -274.2006
  17   2.0000     -10.070845      -274.0416
  18   2.0000     -10.070751      -274.0391
  19   2.0000     -10.065962      -273.9087
  20   2.0000     -10.065834      -273.9053
  21   2.0000     -10.065135      -273.8862
  22   2.0000     -10.064873      -273.8791
  23   2.0000     -10.040869      -273.2259
  24   2.0000     -10.040766      -273.2231
  25   2.0000     -10.028434      -272.8876
  26   2.0000     -10.028431      -272.8875
  27   2.0000     -10.027274      -272.8560
  28   2.0000     -10.027215      -272.8544
  29   2.0000     -10.024363      -272.7768
  30   2.0000     -10.024326      -272.7758
  31   2.0000      -7.870316      -214.1622
  32   2.0000      -7.870298      -214.1617
  33   2.0000      -7.784880      -211.8373
  34   2.0000      -7.784644      -211.8309
  35   2.0000      -5.897069      -160.4674
  36   2.0000      -5.897047      -160.4668
  37   2.0000      -5.894221      -160.3899
  38   2.0000      -5.894208      -160.3895
  39   2.0000      -5.889348      -160.2573
  40   2.0000      -5.889325      -160.2567
  41   2.0000      -5.812416      -158.1639
  42   2.0000      -5.812201      -158.1580
  43   2.0000      -5.808812      -158.0658
  44   2.0000      -5.808530      -158.0581
  45   2.0000      -5.802760      -157.9011
  46   2.0000      -5.802551      -157.8954
  47   2.0000      -3.436432       -93.5101
  48   2.0000      -2.275491       -61.9193
  49   2.0000      -2.248077       -61.1733
  50   2.0000      -2.233737       -60.7831
  51   2.0000      -1.288939       -35.0738
  52   2.0000      -1.033817       -28.1316
  53   2.0000      -0.922785       -25.1103
  54   2.0000      -0.916423       -24.9371
  55   2.0000      -0.894606       -24.3435
  56   2.0000      -0.880438       -23.9579
  57   2.0000      -0.870895       -23.6983
  58   2.0000      -0.843558       -22.9544
  59   2.0000      -0.817016       -22.2321
  60   2.0000      -0.814922       -22.1752
  61   2.0000      -0.801646       -21.8139
  62   2.0000      -0.784547       -21.3486
  63   2.0000      -0.775846       -21.1118
  64   2.0000      -0.756119       -20.5750
  65   2.0000      -0.743077       -20.2201
  66   2.0000      -0.729993       -19.8641
  67   2.0000      -0.723634       -19.6911
  68   2.0000      -0.706379       -19.2215
  69   2.0000      -0.695786       -18.9333
  70   2.0000      -0.657073       -17.8799
  71   2.0000      -0.655766       -17.8443
  72   2.0000      -0.640732       -17.4352
  73   2.0000      -0.634131       -17.2556
  74   2.0000      -0.629412       -17.1272
  75   2.0000      -0.616323       -16.7710
  76   2.0000      -0.611278       -16.6337
  77   2.0000      -0.610844       -16.6219
  78   2.0000      -0.596728       -16.2378
  79   2.0000      -0.581591       -15.8259
  80   2.0000      -0.567834       -15.4515
  81   2.0000      -0.565311       -15.3829
  82   2.0000      -0.562143       -15.2967
  83   2.0000      -0.546610       -14.8740
  84   2.0000      -0.539683       -14.6855
  85   2.0000      -0.534954       -14.5568
  86   2.0000      -0.531568       -14.4647
  87   2.0000      -0.530547       -14.4369
  88   2.0000      -0.520290       -14.1578
  89   2.0000      -0.513192       -13.9647
  90   2.0000      -0.502649       -13.6778
  91   2.0000      -0.499662       -13.5965
  92   2.0000      -0.492932       -13.4134
  93   2.0000      -0.483403       -13.1541
  94   2.0000      -0.482510       -13.1298
  95   2.0000      -0.479328       -13.0432
  96   2.0000      -0.477451       -12.9921
  97   2.0000      -0.464341       -12.6354
  98   2.0000      -0.458559       -12.4780
  99   2.0000      -0.448722       -12.2103
 100   2.0000      -0.446204       -12.1418
 101   2.0000      -0.433585       -11.7985
 102   2.0000      -0.427691       -11.6381
 103   2.0000      -0.424819       -11.5599
 104   2.0000      -0.420377       -11.4390
 105   2.0000      -0.417831       -11.3698
 106   2.0000      -0.411018       -11.1844
 107   2.0000      -0.401639       -10.9292
 108   2.0000      -0.392841       -10.6897
 109   2.0000      -0.391478       -10.6527
 110   2.0000      -0.383170       -10.4266
 111   2.0000      -0.381689       -10.3863
 112   2.0000      -0.372822       -10.1450
 113   2.0000      -0.364136        -9.9087
 114   2.0000      -0.347919        -9.4674
 115   2.0000      -0.347037        -9.4434
 116   2.0000      -0.346038        -9.4162
 117   2.0000      -0.338719        -9.2170
 118   2.0000      -0.298292        -8.1169
 119   2.0000      -0.289171        -7.8687
 120   0.0000      -0.255398        -6.9497
 121   0.0000      -0.252695        -6.8762
 122   0.0000      -0.248465        -6.7611
 123   0.0000      -0.228905        -6.2288
 124   0.0000      -0.220313        -5.9950

MULLIKEN ATOMIC CHARGES
-----------------------
   0 Fe:   -0.047996
   1 N :    0.143618
   2 O :   -0.006520
   3 S :    0.151974
   4 S :   -0.064711
   5 S :   -0.062754
   6 S :    0.151560
   7 C :    0.034961
   8 C :    0.006383
   9 C :    0.026810
  10 C :   -0.113702
  11 C :    0.016469
  12 C :   -0.013499
  13 C :    0.014958
  14 C :   -0.112852
  15 C :   -0.012870
  16 C :    0.034963
  17 C :    0.005535
  18 C :    0.025534
  19 C :   -0.024522
  20 C :   -0.022130
  21 C :    0.031183
  22 C :    0.034132
  23 N :   -0.076322
  24 C :    0.008732
  25 C :    0.008523
  26 C :    0.083685
  27 H :    0.031852
  28 H :    0.028044
  29 H :    0.016236
  30 H :    0.020150
  31 H :    0.019934
  32 H :    0.031927
  33 H :    0.027729
  34 H :    0.015888
  35 H :    0.095870
  36 H :    0.133516
  37 H :    0.094996
  38 H :    0.134135
  39 H :    0.036506
  40 H :    0.036349
  41 H :    0.055725
Sum of atomic charges:    1.0000000

LOEWDIN ATOMIC CHARGES
----------------------
   0 Fe:   -0.535983
   1 N :    0.204443
   2 O :    0.094612
   3 S :    0.618023
   4 S :    0.140132
   5 S :    0.140835
   6 S :    0.617241
   7 C :    0.007137
   8 C :   -0.019615
   9 C :   -0.026900
  10 C :   -0.209376
  11 C :   -0.166111
  12 C :   -0.028430
  13 C :   -0.166462
  14 C :   -0.208327
  15 C :   -0.028457
  16 C :    0.006785
  17 C :   -0.019657
  18 C :   -0.027273
  19 C :   -0.117653
  20 C :   -0.117385
  21 C :    0.025333
  22 C :    0.025949
  23 N :    0.026541
  24 C :   -0.008588
  25 C :   -0.008568
  26 C :    0.041563
  27 H :    0.047112
  28 H :    0.045193
  29 H :    0.039058
  30 H :    0.042939
  31 H :    0.042820
  32 H :    0.047100
  33 H :    0.045086
  34 H :    0.038882
  35 H :    0.054464
  36 H :    0.059159
  37 H :    0.053856
  38 H :    0.058999
  39 H :    0.053881
  40 H :    0.053848
  41 H :    0.057794

  Mayer bond orders larger than 0.1
B(  0-Fe,  1-N ) :   1.4193 B(  0-Fe,  2-O ) :   0.5335 B(  0-Fe,  3-S ) :   0.7887
B(  0-Fe,  4-S ) :   0.8975 B(  0-Fe,  5-S ) :   0.8978 B(  0-Fe,  6-S ) :   0.7861
B(  0-Fe, 23-N ) :   0.5912 B(  1-N ,  2-O ) :   1.8928 B(  3-S , 10-C ) :   0.9022
B(  3-S , 19-C ) :   0.9451 B(  4-S , 11-C ) :   1.0662 B(  5-S , 13-C ) :   1.0667
B(  6-S , 14-C ) :   0.8993 B(  6-S , 20-C ) :   0.9465 B(  7-C ,  8-C ) :   1.3435
B(  7-C , 12-C ) :   1.4176 B(  7-C , 27-H ) :   0.9798 B(  8-C ,  9-C ) :   1.4089
B(  8-C , 28-H ) :   0.9806 B(  9-C , 10-C ) :   1.3630 B(  9-C , 29-H ) :   0.9770
B( 10-C , 11-C ) :   1.3785 B( 11-C , 12-C ) :   1.3536 B( 12-C , 30-H ) :   0.9803
B( 13-C , 14-C ) :   1.3806 B( 13-C , 15-C ) :   1.3538 B( 14-C , 18-C ) :   1.3628
B( 15-C , 16-C ) :   1.4173 B( 15-C , 31-H ) :   0.9802 B( 16-C , 17-C ) :   1.3436
B( 16-C , 32-H ) :   0.9798 B( 17-C , 18-C ) :   1.4104 B( 17-C , 33-H ) :   0.9803
B( 18-C , 34-H ) :   0.9766 B( 19-C , 22-C ) :   1.0158 B( 19-C , 35-H ) :   0.9187
B( 19-C , 36-H ) :   0.8985 B( 20-C , 21-C ) :   1.0146 B( 20-C , 37-H ) :   0.9196
B( 20-C , 38-H ) :   0.8986 B( 21-C , 23-N ) :   1.3414 B( 21-C , 25-C ) :   1.4308
B( 22-C , 23-N ) :   1.3421 B( 22-C , 24-C ) :   1.4292 B( 24-C , 26-C ) :   1.3900
B( 24-C , 39-H ) :   0.9653 B( 25-C , 26-C ) :   1.3900 B( 25-C , 40-H ) :   0.9651
B( 26-C , 41-H ) :   0.9670

FINAL SINGLE POINT ENERGY     -3773.243610247223

DIPOLE MOMENT
-------------
                                X             Y             Z
Electronic contribution:     -0.17920     -16.12480       0.16217
Nuclear contribution   :      0.19760      18.54287      -0.15913
                        -----------------------------------------
Total Dipole Moment    :      0.01840       2.41807       0.00305
                        -----------------------------------------
Magnitude (a.u.)       :      2.41814
Magnitude (Debye)      :      6.14643

Rotational constants in cm-1:     0.009559     0.004005     0.003697
Rotational constants in MHz :   286.575411   120.053356   110.841729

                             ****ORCA TERMINATED NORMALLY****
TOTAL RUN TIME: 0 days 0 hours 1 minutes 23 seconds 518 msec
