                         Program Version 4.1.2  - RELEASE  -
|  1> ! bp86 def2-svp
|  2>
|  3> * xyzfile 0 1 geom.xyz
|  4>
|  5> %eprnmr
|  6> nuclei = all Fe {fgrad, rho}
|  7> end
|  8>
|  9>
| 10>                          ****END OF INPUT****

CARTESIAN COORDINATES (ANGSTROEM)
---------------------------------
  Fe     0.006906    0.000706   -0.000006
  C      1.813821   -0.001302   -0.001041
  C     -0.983320    1.516294    0.000213
  C     -0.981646   -1.516205    0.000956
  C      0.076814    0.000959   -1.815825
  C      0.077244    0.001856    1.815607
  O      2.970190   -0.002554   -0.001386
  O     -1.640297    2.467354    0.000415
  O     -1.638062   -2.467624    0.001058
  O      0.150834    0.001048   -2.964200
  O      0.147516   -0.000532    2.964209

 Total Charge           Charge          ....    0
 Multiplicity           Mult            ....    1
 Number of Electrons    NEL             ....   96
 Basis Dimension        Dim             ....  171

ORBITAL ENERGIES
----------------

  NO   OCC          E(Eh)            E(eV)
   0   2.0000    -254.867355     -6935.2933
   1   2.0000     -29.635938      -806.4349
   2   2.0000     -25.596982      -696.5293
   3   2.0000     -25.584147      -696.1800
   4   2.0000     -25.581600      -696.1107
   5   2.0000     -18.882548      -513.8203
   6   2.0000     -18.882482      -513.8185
   7   2.0000     -18.869080      -513.4538
   8   2.0000     -18.868763      -513.4451
   9   2.0000     -18.868748      -513.4447
  10   2.0000     -10.056262      -273.6448
  11   2.0000     -10.056244      -273.6443
  12   2.0000     -10.042137      -273.2605
  13   2.0000     -10.040490      -273.2156
  14   2.0000     -10.040462      -273.2149
  15   2.0000      -3.319235       -90.3210
  16   2.0000      -2.153542       -58.6009
  17   2.0000      -2.129778       -57.9542
  18   2.0000      -2.124008       -57.7972
  19   2.0000      -1.057658       -28.7803
  20   2.0000      -1.057561       -28.7777
  21   2.0000      -1.041516       -28.3411
  22   2.0000      -1.041086       -28.3294
  23   2.0000      -1.040963       -28.3261
  24   2.0000      -0.565197       -15.3798
  25   2.0000      -0.520938       -14.1754
  26   2.0000      -0.511360       -13.9148
  27   2.0000      -0.509630       -13.8677
  28   2.0000      -0.507367       -13.8061
  29   2.0000      -0.459985       -12.5168
  30   2.0000      -0.449634       -12.2352
  31   2.0000      -0.445338       -12.1183
  32   2.0000      -0.440744       -11.9933
  33   2.0000      -0.438862       -11.9420
  34   2.0000      -0.437411       -11.9026
  35   2.0000      -0.424632       -11.5548
  36   2.0000      -0.422334       -11.4923
  37   2.0000      -0.419652       -11.4193
  38   2.0000      -0.415512       -11.3067
  39   2.0000      -0.414819       -11.2878
  40   2.0000      -0.414562       -11.2808
  41   2.0000      -0.401732       -10.9317
  42   2.0000      -0.398998       -10.8573
  43   2.0000      -0.384083       -10.4514
  44   2.0000      -0.276600        -7.5267
  45   2.0000      -0.272220        -7.4075
  46   2.0000      -0.230044        -6.2598
  47   2.0000      -0.224390        -6.1060
  48   0.0000      -0.089063        -2.4235
  49   0.0000      -0.084690        -2.3045
  50   0.0000      -0.083248        -2.2653
  51   0.0000      -0.076553        -2.0831
  52   0.0000      -0.075871        -2.0646

MULLIKEN ATOMIC CHARGES
-----------------------
   0 Fe:   -0.981301
   1 C :    0.158957
   2 C :    0.207724
   3 C :    0.208586
   4 C :    0.178014
   5 C :    0.177779
   6 O :   -0.000796
   7 O :    0.003247
   8 O :    0.003385
   9 O :    0.022206
  10 O :    0.022200
Sum of atomic charges:    0.0000000

LOEWDIN ATOMIC CHARGES
----------------------
   0 Fe:   -0.776082
   1 C :    0.106360
   2 C :    0.109260
   3 C :    0.109331
   4 C :    0.127562
   5 C :    0.127572
   6 O :    0.032794
   7 O :    0.033606
   8 O :    0.033670
   9 O :    0.047971
  10 O :    0.047956

  Mayer bond orders larger than 0.1
B(  0-Fe,  1-C ) :   1.2091 B(  0-Fe,  2-C ) :   1.2633 B(  0-Fe,  3-C ) :   1.2640
B(  0-Fe,  4-C ) :   1.3448 B(  0-Fe,  5-C ) :   1.3449 B(  0-Fe,  6-O ) :   0.1655
B(  0-Fe,  7-O ) :   0.1569 B(  0-Fe,  8-O ) :   0.1566 B(  0-Fe,  9-O ) :   0.1497
B(  0-Fe, 10-O ) :   0.1497 B(  1-C ,  6-O ) :   2.3886 B(  2-C ,  7-O ) :   2.3957
B(  3-C ,  8-O ) :   2.3959 B(  4-C ,  9-O ) :   2.4085 B(  5-C , 10-O ) :   2.4085

FINAL SINGLE POINT ENERGY     -1830.150353397154

DIPOLE MOMENT
-------------
                                X             Y             Z
Electronic contribution:      0.02109       0.00250      -0.00014
Nuclear contribution   :     -0.02020      -0.00218       0.00003
                        -----------------------------------------
Total Dipole Moment    :      0.00088       0.00032      -0.00011
                        -----------------------------------------
Magnitude (a.u.)       :      0.00095
Magnitude (Debye)      :      0.00241

Rotational constants in cm-1:     0.031176     0.027618     0.025894
Rotational constants in MHz :   934.632307   827.956670   776.278510

                             ****ORCA TERMINATED NORMALLY****
TOTAL RUN TIME: 0 days 0 hours 0 minutes 8 seconds 683 msec
