                         Program Version 4.1.2  - RELEASE  -
|  1> ! bp86 def2-svp
|  2>
|  3> * xyzfile -1 5 geom.xyz
|  4>
|  5> %eprnmr
|  6> nuclei = all Fe {fgrad, rho}
|  7> end
|  8>
|  9>
| 10>                          ****END OF INPUT****

CARTESIAN COORDINATES (ANGSTROEM)
---------------------------------
  Fe    -0.182517   -0.008482    0.181023
  Cl    -0.603264   -0.043833    2.522261
  N      1.107028   -1.414438   -0.076751
  N     -1.494838   -1.358691   -0.277158
  N     -1.446253    1.402177   -0.226001
  N      1.162954    1.330432   -0.209487
  O     -1.585051   -3.428532   -1.345133
  O     -4.454775    0.056527    1.202601
  O     -1.559864    3.537600   -1.068208
  O      3.312360    2.026777   -0.657975
  O      3.164209   -2.400338    0.151617
  C      0.531743   -2.727090   -0.485394
  C     -0.959315   -2.521672   -0.771329
  C     -2.979777   -1.257086   -0.175470
  C     -3.453459    0.073304    0.498322
  C     -2.886575    1.459120    0.124866
  C     -0.899537    2.534234   -0.751690
  C      0.625157    2.527049   -0.923915
  C      2.532688    1.179221   -0.187568
  C      3.147862   -0.052198    0.484076
  C      2.458587   -1.378394    0.151450
  C      1.182068   -3.292324   -1.763264
  C      0.591033   -3.752228    0.679275
  C     -3.654881   -1.293571   -1.579711
  C     -3.518038   -2.412414    0.696806
  C     -3.092052    2.424179    1.317226
  C     -3.798929    1.927110   -1.061949
  C      1.127414    3.848839   -0.308734
  C      0.918633    2.447620   -2.440935
  C      3.028138    0.067160    2.046281
  C      3.728535    1.270614    2.684806
  C      4.645247   -0.160467    0.073259
  C      4.924938   -0.426564   -1.415566
  H      0.611182   -4.173483   -2.068050
  H      2.218459   -3.566203   -1.573369
  H      1.140562   -2.554451   -2.571996
  H      1.627651   -4.024500    0.879088
  H      0.019219   -4.641273    0.397304
  H      0.155285   -3.322017    1.585822
  H     -4.724975   -1.082201   -1.483372
  H     -3.523269   -2.291864   -1.998435
  H     -3.210693   -0.568872   -2.265063
  H     -3.280286   -3.369524    0.231545
  H     -4.601438   -2.318938    0.794934
  H     -3.071013   -2.361309    1.693403
  H     -4.147690    2.431458    1.598665
  H     -2.795562    3.429394    1.012049
  H     -2.491408    2.110671    2.174497
  H     -3.735703    3.009461   -1.148410
  H     -4.833062    1.640636   -0.850228
  H     -3.483129    1.487515   -2.009712
  H      2.201662    3.954721   -0.443219
  H      0.887266    3.876837    0.759130
  H      0.606191    4.671747   -0.804697
  H      1.993631    2.518529   -2.616950
  H      0.412507    3.272285   -2.951497
  H      0.546262    1.501669   -2.847184
  H      1.965733    0.082494    2.308261
  H      3.444241   -0.863582    2.450959
  H      3.520509    1.274261    3.760414
  H      3.362184    2.217359    2.273517
  H      4.813839    1.232322    2.550933
  H      5.085865   -0.967272    0.667404
  H      5.136758    0.771426    0.363027
  H      6.007843   -0.467522   -1.584917
  H      4.517813    0.366692   -2.049517
  H      4.505724   -1.382183   -1.744697

 Total Charge           Charge          ....   -1
 Multiplicity           Mult            ....    5
 Number of Electrons    NEL             ....  278
 Basis Dimension        Dim             ....  653

ORBITAL ENERGIES
----------------
                 SPIN UP ORBITALS
  NO   OCC          E(Eh)            E(eV)
   0   1.0000    -254.789882     -6933.1852
   1   1.0000    -100.533408     -2735.6531
   2   1.0000     -29.577148      -804.8351
   3   1.0000     -25.526838      -694.6206
   4   1.0000     -25.521980      -694.4884
   5   1.0000     -25.516792      -694.3472
   6   1.0000     -18.677487      -508.2403
   7   1.0000     -18.652247      -507.5534
   8   1.0000     -18.651733      -507.5395
   9   1.0000     -18.648761      -507.4586
  10   1.0000     -18.647331      -507.4197
  11   1.0000     -13.928700      -379.0192
  12   1.0000     -13.928266      -379.0074
  13   1.0000     -13.926075      -378.9478
  14   1.0000     -13.925937      -378.9440
  15   1.0000      -9.903188      -269.4795
  16   1.0000      -9.898963      -269.3645
  17   1.0000      -9.897793      -269.3326
  18   1.0000      -9.897094      -269.3136
  19   1.0000      -9.896366      -269.2938
  20   1.0000      -9.872765      -268.6516
  21   1.0000      -9.869557      -268.5643
  22   1.0000      -9.862168      -268.3632
  23   1.0000      -9.859086      -268.2794
  24   1.0000      -9.830733      -267.5078
  25   1.0000      -9.817914      -267.1590
  26   1.0000      -9.814792      -267.0741
  27   1.0000      -9.814728      -267.0723
  28   1.0000      -9.811559      -266.9861
  29   1.0000      -9.811071      -266.9728
  30   1.0000      -9.806135      -266.8385
  31   1.0000      -9.802625      -266.7430
  32   1.0000      -9.802474      -266.7389
  33   1.0000      -9.801456      -266.7112
  34   1.0000      -9.800881      -266.6955
  35   1.0000      -9.799713      -266.6637
  36   1.0000      -9.799164      -266.6488
  37   1.0000      -9.014807      -245.3054
  38   1.0000      -6.842178      -186.1851
  39   1.0000      -6.837753      -186.0647
  40   1.0000      -6.836810      -186.0391
  41   1.0000      -3.300420       -89.8090
  42   1.0000      -2.121596       -57.7316
  43   1.0000      -2.112696       -57.4894
  44   1.0000      -2.104985       -57.2796
  45   1.0000      -0.852389       -23.1947
  46   1.0000      -0.837975       -22.8024
  47   1.0000      -0.835812       -22.7436
  48   1.0000      -0.832655       -22.6577
  49   1.0000      -0.828839       -22.5538
  50   1.0000      -0.727385       -19.7931
  51   1.0000      -0.716831       -19.5060
  52   1.0000      -0.708457       -19.2781
  53   1.0000      -0.699704       -19.0399
  54   1.0000      -0.642430       -17.4814
  55   1.0000      -0.612531       -16.6678
  56   1.0000      -0.605763       -16.4837
  57   1.0000      -0.593952       -16.1623
  58   1.0000      -0.587228       -15.9793
  59   1.0000      -0.575018       -15.6470
  60   1.0000      -0.567232       -15.4352
  61   1.0000      -0.529598       -14.4111
  62   1.0000      -0.526473       -14.3260
  63   1.0000      -0.522147       -14.2084
  64   1.0000      -0.518055       -14.0970
  65   1.0000      -0.516907       -14.0658
  66   1.0000      -0.502141       -13.6640
  67   1.0000      -0.479722       -13.0539
  68   1.0000      -0.469506       -12.7759
  69   1.0000      -0.449316       -12.2265
  70   1.0000      -0.435491       -11.8503
  71   1.0000      -0.432464       -11.7679
  72   1.0000      -0.405891       -11.0448
  73   1.0000      -0.382427       -10.4064
  74   1.0000      -0.363781        -9.8990
  75   1.0000      -0.362360        -9.8603
  76   1.0000      -0.356365        -9.6972
  77   1.0000      -0.347659        -9.4603
  78   1.0000      -0.334455        -9.1010
  79   1.0000      -0.331776        -9.0281
  80   1.0000      -0.320705        -8.7268
  81   1.0000      -0.317223        -8.6321
  82   1.0000      -0.315029        -8.5724
  83   1.0000      -0.305942        -8.3251
  84   1.0000      -0.305300        -8.3076
  85   1.0000      -0.302163        -8.2223
  86   1.0000      -0.300330        -8.1724
  87   1.0000      -0.297052        -8.0832
  88   1.0000      -0.295744        -8.0476
  89   1.0000      -0.289973        -7.8906
  90   1.0000      -0.288184        -7.8419
  91   1.0000      -0.283834        -7.7235
  92   1.0000      -0.275684        -7.5018
  93   1.0000      -0.274284        -7.4637
  94   1.0000      -0.271775        -7.3954
  95   1.0000      -0.268753        -7.3131
  96   1.0000      -0.265151        -7.2151
  97   1.0000      -0.262580        -7.1452
  98   1.0000      -0.259635        -7.0650
  99   1.0000      -0.256826        -6.9886
 100   1.0000      -0.252425        -6.8688
 101   1.0000      -0.246333        -6.7031
 102   1.0000      -0.245406        -6.6778
 103   1.0000      -0.241879        -6.5819
 104   1.0000      -0.239118        -6.5067
 105   1.0000      -0.238675        -6.4947
 106   1.0000      -0.234981        -6.3941
 107   1.0000      -0.232894        -6.3374
 108   1.0000      -0.230759        -6.2793
 109   1.0000      -0.225426        -6.1341
 110   1.0000      -0.224103        -6.0981
 111   1.0000      -0.221308        -6.0221
 112   1.0000      -0.220281        -5.9941
 113   1.0000      -0.218398        -5.9429
 114   1.0000      -0.213235        -5.8024
 115   1.0000      -0.212758        -5.7894
 116   1.0000      -0.210735        -5.7344
 117   1.0000      -0.209849        -5.7103
 118   1.0000      -0.208354        -5.6696
 119   1.0000      -0.206084        -5.6078
 120   1.0000      -0.205165        -5.5828
 121   1.0000      -0.202780        -5.5179
 122   1.0000      -0.198922        -5.4130
 123   1.0000      -0.197992        -5.3876
 124   1.0000      -0.194282        -5.2867
 125   1.0000      -0.192234        -5.2310
 126   1.0000      -0.181978        -4.9519
 127   1.0000      -0.172138        -4.6841
 128   1.0000      -0.171128        -4.6566
 129   1.0000      -0.148406        -4.0383
 130   1.0000      -0.122832        -3.3424
 131   1.0000      -0.120003        -3.2654
 132   1.0000      -0.119815        -3.2603
 133   1.0000      -0.118880        -3.2349
 134   1.0000      -0.110609        -3.0098
 135   1.0000      -0.108472        -2.9517
 136   1.0000      -0.107124        -2.9150
 137   1.0000      -0.104529        -2.8444
 138   1.0000      -0.101635        -2.7656
 139   1.0000      -0.092477        -2.5164
 140   1.0000      -0.088852        -2.4178
 141   0.0000      -0.024124        -0.6564
 142   0.0000       0.030133         0.8200
 143   0.0000       0.072167         1.9638
 144   0.0000       0.081340         2.2134
 145   0.0000       0.083210         2.2643

                 SPIN DOWN ORBITALS
  NO   OCC          E(Eh)            E(eV)
   0   1.0000    -254.789301     -6933.1694
   1   1.0000    -100.531645     -2735.6051
   2   1.0000     -29.521602      -803.3236
   3   1.0000     -25.486103      -693.5121
   4   1.0000     -25.482943      -693.4261
   5   1.0000     -25.470427      -693.0856
   6   1.0000     -18.677563      -508.2423
   7   1.0000     -18.651037      -507.5205
   8   1.0000     -18.650363      -507.5022
   9   1.0000     -18.647294      -507.4187
  10   1.0000     -18.646005      -507.3836
  11   1.0000     -13.926782      -378.9670
  12   1.0000     -13.926698      -378.9647
  13   1.0000     -13.924369      -378.9013
  14   1.0000     -13.924185      -378.8963
  15   1.0000      -9.903197      -269.4797
  16   1.0000      -9.898882      -269.3623
  17   1.0000      -9.897717      -269.3306
  18   1.0000      -9.897076      -269.3131
  19   1.0000      -9.896368      -269.2939
  20   1.0000      -9.872717      -268.6503
  21   1.0000      -9.869497      -268.5627
  22   1.0000      -9.862036      -268.3596
  23   1.0000      -9.858969      -268.2762
  24   1.0000      -9.830585      -267.5038
  25   1.0000      -9.817850      -267.1573
  26   1.0000      -9.814717      -267.0720
  27   1.0000      -9.814707      -267.0718
  28   1.0000      -9.811553      -266.9859
  29   1.0000      -9.810950      -266.9695
  30   1.0000      -9.806132      -266.8384
  31   1.0000      -9.802478      -266.7390
  32   1.0000      -9.802349      -266.7355
  33   1.0000      -9.801359      -266.7085
  34   1.0000      -9.800824      -266.6940
  35   1.0000      -9.799559      -266.6596
  36   1.0000      -9.799149      -266.6484
  37   1.0000      -9.013107      -245.2591
  38   1.0000      -6.838782      -186.0927
  39   1.0000      -6.835840      -186.0127
  40   1.0000      -6.835120      -185.9931
  41   1.0000      -3.174004       -86.3690
  42   1.0000      -2.000185       -54.4278
  43   1.0000      -1.996811       -54.3360
  44   1.0000      -1.971365       -53.6436
  45   1.0000      -0.852434       -23.1959
  46   1.0000      -0.835844       -22.7445
  47   1.0000      -0.833753       -22.6876
  48   1.0000      -0.830596       -22.6017
  49   1.0000      -0.826605       -22.4931
  50   1.0000      -0.724128       -19.7045
  51   1.0000      -0.713666       -19.4198
  52   1.0000      -0.705371       -19.1941
  53   1.0000      -0.696469       -18.9519
  54   1.0000      -0.641816       -17.4647
  55   1.0000      -0.611142       -16.6300
  56   1.0000      -0.604173       -16.4404
  57   1.0000      -0.592869       -16.1328
  58   1.0000      -0.586035       -15.9468
  59   1.0000      -0.574804       -15.6412
  60   1.0000      -0.556947       -15.1553
  61   1.0000      -0.529113       -14.3979
  62   1.0000      -0.526133       -14.3168
  63   1.0000      -0.521826       -14.1996
  64   1.0000      -0.517772       -14.0893
  65   1.0000      -0.516644       -14.0586
  66   1.0000      -0.501476       -13.6459
  67   1.0000      -0.478662       -13.0251
  68   1.0000      -0.468701       -12.7540
  69   1.0000      -0.449112       -12.2210
  70   1.0000      -0.434837       -11.8325
  71   1.0000      -0.431752       -11.7486
  72   1.0000      -0.405023       -11.0212
  73   1.0000      -0.381277       -10.3751
  74   1.0000      -0.362549        -9.8655
  75   1.0000      -0.358891        -9.7659
  76   1.0000      -0.353306        -9.6140
  77   1.0000      -0.344880        -9.3847
  78   1.0000      -0.330974        -9.0063
  79   1.0000      -0.325292        -8.8517
  80   1.0000      -0.319210        -8.6861
  81   1.0000      -0.315546        -8.5864
  82   1.0000      -0.313485        -8.5304
  83   1.0000      -0.304203        -8.2778
  84   1.0000      -0.303141        -8.2489
  85   1.0000      -0.300781        -8.1847
  86   1.0000      -0.298313        -8.1175
  87   1.0000      -0.295215        -8.0332
  88   1.0000      -0.293963        -7.9991
  89   1.0000      -0.288581        -7.8527
  90   1.0000      -0.286544        -7.7973
  91   1.0000      -0.282747        -7.6939
  92   1.0000      -0.272692        -7.4203
  93   1.0000      -0.271277        -7.3818
  94   1.0000      -0.270148        -7.3511
  95   1.0000      -0.266137        -7.2419
  96   1.0000      -0.262636        -7.1467
  97   1.0000      -0.260994        -7.1020
  98   1.0000      -0.258734        -7.0405
  99   1.0000      -0.254598        -6.9280
 100   1.0000      -0.251242        -6.8366
 101   1.0000      -0.245488        -6.6801
 102   1.0000      -0.244709        -6.6589
 103   1.0000      -0.241018        -6.5584
 104   1.0000      -0.235982        -6.4214
 105   1.0000      -0.234027        -6.3682
 106   1.0000      -0.232993        -6.3401
 107   1.0000      -0.230418        -6.2700
 108   1.0000      -0.228164        -6.2087
 109   1.0000      -0.223248        -6.0749
 110   1.0000      -0.218830        -5.9547
 111   1.0000      -0.216772        -5.8987
 112   1.0000      -0.215257        -5.8574
 113   1.0000      -0.212342        -5.7781
 114   1.0000      -0.210190        -5.7196
 115   1.0000      -0.208648        -5.6776
 116   1.0000      -0.206131        -5.6091
 117   1.0000      -0.205756        -5.5989
 118   1.0000      -0.199884        -5.4391
 119   1.0000      -0.197312        -5.3691
 120   1.0000      -0.194877        -5.3029
 121   1.0000      -0.191385        -5.2079
 122   1.0000      -0.183670        -4.9979
 123   1.0000      -0.180526        -4.9124
 124   1.0000      -0.172498        -4.6939
 125   1.0000      -0.168884        -4.5956
 126   1.0000      -0.145928        -3.9709
 127   1.0000      -0.141008        -3.8370
 128   1.0000      -0.137045        -3.7292
 129   1.0000      -0.118507        -3.2247
 130   1.0000      -0.116729        -3.1764
 131   1.0000      -0.115357        -3.1390
 132   1.0000      -0.107754        -2.9321
 133   1.0000      -0.104295        -2.8380
 134   1.0000      -0.103612        -2.8194
 135   1.0000      -0.100078        -2.7233
 136   1.0000      -0.093497        -2.5442
 137   0.0000      -0.077178        -2.1001
 138   0.0000      -0.050477        -1.3736
 139   0.0000      -0.043854        -1.1933
 140   0.0000      -0.028341        -0.7712
 141   0.0000       0.020987         0.5711

MULLIKEN ATOMIC CHARGES AND SPIN POPULATIONS
--------------------------------------------
   0 Fe:    0.617951    3.166771
   1 Cl:   -0.330640    0.271101
   2 N :   -0.303022    0.062437
   3 N :   -0.303583    0.066302
   4 N :   -0.296258    0.051005
   5 N :   -0.307813    0.060292
   6 O :   -0.249619    0.053441
   7 O :   -0.189696   -0.003487
   8 O :   -0.252374    0.061255
   9 O :   -0.245899    0.064352
  10 O :   -0.244005    0.057921
  11 C :   -0.127321    0.005938
  12 C :    0.144936   -0.000114
  13 C :   -0.146338    0.004826
  14 C :    0.059715   -0.003381
  15 C :   -0.149673    0.005030
  16 C :    0.147702   -0.000327
  17 C :   -0.130829    0.006714
  18 C :    0.169076    0.007212
  19 C :   -0.276860    0.006940
  20 C :    0.156969    0.006548
  21 C :    0.071147    0.002159
  22 C :    0.078789    0.006814
  23 C :    0.067941    0.001932
  24 C :    0.077957    0.004877
  25 C :    0.084513    0.006845
  26 C :    0.083453   -0.001510
  27 C :    0.056035    0.002395
  28 C :    0.066338    0.007396
  29 C :    0.026659    0.003791
  30 C :   -0.017437    0.000301
  31 C :    0.077743    0.000461
  32 C :   -0.030391    0.000570
  33 H :    0.014998    0.001161
  34 H :    0.028864   -0.000191
  35 H :    0.005457   -0.000044
  36 H :    0.029151   -0.000471
  37 H :    0.006400    0.002565
  38 H :    0.019714   -0.000516
  39 H :    0.008731    0.001972
  40 H :    0.041000   -0.000274
  41 H :    0.021023   -0.000035
  42 H :    0.025256   -0.000281
  43 H :    0.013991    0.002075
  44 H :    0.021363    0.000312
  45 H :    0.008655    0.002378
  46 H :    0.022181   -0.000484
  47 H :    0.020111   -0.000054
  48 H :    0.041864   -0.000278
  49 H :    0.011116    0.002210
  50 H :    0.009194    0.000282
  51 H :    0.032704   -0.000224
  52 H :    0.017606    0.000237
  53 H :    0.014453    0.002975
  54 H :    0.036221    0.000009
  55 H :    0.013412    0.000784
  56 H :    0.015332   -0.001087
  57 H :    0.024917   -0.001076
  58 H :    0.002815    0.000509
  59 H :    0.015708    0.000194
  60 H :    0.031459    0.000086
  61 H :    0.019398    0.000124
  62 H :   -0.005066   -0.000182
  63 H :    0.003983   -0.000064
  64 H :   -0.006759    0.000058
  65 H :    0.027269    0.000255
  66 H :    0.022313    0.000263
Sum of atomic charges         :   -1.0000000

LOEWDIN ATOMIC CHARGES AND SPIN POPULATIONS
-------------------------------------------
   0 Fe:    0.286826    3.059793
   1 Cl:   -0.254861    0.274547
   2 N :   -0.109087    0.083961
   3 N :   -0.112014    0.087043
   4 N :   -0.108329    0.072759
   5 N :   -0.116346    0.082278
   6 O :   -0.206320    0.051130
   7 O :   -0.131279   -0.003255
   8 O :   -0.204538    0.058358
   9 O :   -0.197175    0.061804
  10 O :   -0.197380    0.055772
  11 C :   -0.012997    0.008569
  12 C :    0.046636    0.006507
  13 C :   -0.010951    0.003719
  14 C :    0.094641   -0.000989
  15 C :   -0.014029    0.004025
  16 C :    0.045003    0.006137
  17 C :   -0.014338    0.009260
  18 C :    0.057863    0.011516
  19 C :   -0.089858    0.007057
  20 C :    0.059717    0.010739
  21 C :   -0.056826    0.002149
  22 C :   -0.047221    0.006390
  23 C :   -0.049687    0.002305
  24 C :   -0.054587    0.004864
  25 C :   -0.050154    0.006307
  26 C :   -0.046555   -0.000091
  27 C :   -0.055607    0.003794
  28 C :   -0.051110    0.005497
  29 C :   -0.017514    0.003429
  30 C :   -0.072269    0.000346
  31 C :   -0.025683    0.000308
  32 C :   -0.074271    0.000584
  33 H :    0.024268    0.000635
  34 H :    0.022525    0.000083
  35 H :    0.022793   -0.000030
  36 H :    0.024600    0.000015
  37 H :    0.022725    0.001776
  38 H :    0.027022    0.000037
  39 H :    0.023930    0.001355
  40 H :    0.030456   -0.000095
  41 H :    0.023247    0.000028
  42 H :    0.022702    0.000026
  43 H :    0.022747    0.001375
  44 H :    0.028646    0.000406
  45 H :    0.020937    0.001622
  46 H :    0.023250   -0.000078
  47 H :    0.020684    0.000431
  48 H :    0.029212   -0.000187
  49 H :    0.021777    0.001401
  50 H :    0.022997    0.000098
  51 H :    0.022250    0.000160
  52 H :    0.027568    0.000079
  53 H :    0.023562    0.001625
  54 H :    0.026761    0.000393
  55 H :    0.025129    0.000722
  56 H :    0.024096   -0.000198
  57 H :    0.012780    0.000305
  58 H :    0.022612    0.000494
  59 H :    0.025940    0.000193
  60 H :    0.028695    0.000133
  61 H :    0.019634    0.000096
  62 H :    0.018683   -0.000061
  63 H :    0.019317    0.000061
  64 H :    0.017534    0.000054
  65 H :    0.021090    0.000236
  66 H :    0.020129    0.000199

  Mayer bond orders larger than 0.1
B(  0-Fe,  1-Cl) :   0.8198 B(  0-Fe,  2-N ) :   0.8052 B(  0-Fe,  3-N ) :   0.7971
B(  0-Fe,  4-N ) :   0.7804 B(  0-Fe,  5-N ) :   0.8022 B(  0-Fe,  8-O ) :   0.1013
B(  2-N , 11-C ) :   0.9187 B(  2-N , 20-C ) :   1.2316 B(  3-N , 12-C ) :   1.2090
B(  3-N , 13-C ) :   0.9437 B(  4-N , 15-C ) :   0.9499 B(  4-N , 16-C ) :   1.2250
B(  5-N , 17-C ) :   0.9245 B(  5-N , 18-C ) :   1.2233 B(  6-O , 12-C ) :   1.8969
B(  7-O , 14-C ) :   2.1218 B(  8-O , 16-C ) :   1.8922 B(  9-O , 18-C ) :   1.8826
B( 10-O , 20-C ) :   1.8933 B( 11-C , 12-C ) :   0.8910 B( 11-C , 21-C ) :   1.0595
B( 11-C , 22-C ) :   1.0358 B( 13-C , 14-C ) :   0.8745 B( 13-C , 23-C ) :   1.0422
B( 13-C , 24-C ) :   1.0656 B( 14-C , 15-C ) :   0.8897 B( 15-C , 25-C ) :   1.0551
B( 15-C , 26-C ) :   1.0374 B( 16-C , 17-C ) :   0.8907 B( 17-C , 27-C ) :   1.0573
B( 17-C , 28-C ) :   1.0351 B( 18-C , 19-C ) :   0.8796 B( 19-C , 20-C ) :   0.8895
B( 19-C , 29-C ) :   1.0169 B( 19-C , 31-C ) :   1.0605 B( 21-C , 33-H ) :   0.9397
B( 21-C , 34-H ) :   0.9419 B( 21-C , 35-H ) :   0.9495 B( 22-C , 36-H ) :   0.9451
B( 22-C , 37-H ) :   0.9469 B( 22-C , 38-H ) :   0.9432 B( 23-C , 39-H ) :   0.9432
B( 23-C , 40-H ) :   0.9328 B( 23-C , 41-H ) :   0.9420 B( 24-C , 42-H ) :   0.9370
B( 24-C , 43-H ) :   0.9391 B( 24-C , 44-H ) :   0.9478 B( 25-C , 45-H ) :   0.9415
B( 25-C , 46-H ) :   0.9403 B( 25-C , 47-H ) :   0.9406 B( 26-C , 48-H ) :   0.9351
B( 26-C , 49-H ) :   0.9411 B( 26-C , 50-H ) :   0.9413 B( 27-C , 51-H ) :   0.9418
B( 27-C , 52-H ) :   0.9500 B( 27-C , 53-H ) :   0.9397 B( 28-C , 54-H ) :   0.9477
B( 28-C , 55-H ) :   0.9496 B( 28-C , 56-H ) :   0.9482 B( 29-C , 30-C ) :   1.1219
B( 29-C , 57-H ) :   0.9042 B( 29-C , 58-H ) :   0.9228 B( 30-C , 59-H ) :   0.9547
B( 30-C , 60-H ) :   0.9544 B( 30-C , 61-H ) :   0.9568 B( 31-C , 32-C ) :   1.1177
B( 31-C , 62-H ) :   0.9141 B( 31-C , 63-H ) :   0.9087 B( 32-C , 64-H ) :   0.9559
B( 32-C , 65-H ) :   0.9587 B( 32-C , 66-H ) :   0.9565

FINAL SINGLE POINT ENERGY     -3177.029850593918

DIPOLE MOMENT
-------------
                                X             Y             Z
Electronic contribution:    -11.58598      -1.61435       9.60636
Nuclear contribution   :     11.52735       1.77023     -10.16634
                        -----------------------------------------
Total Dipole Moment    :     -0.05862       0.15588      -0.55998
                        -----------------------------------------
Magnitude (a.u.)       :      0.58422
Magnitude (Debye)      :      1.48497

Rotational constants in cm-1:     0.005861     0.004061     0.003114
Rotational constants in MHz :   175.710073   121.731573    93.350177

                             ****ORCA TERMINATED NORMALLY****
TOTAL RUN TIME: 0 days 0 hours 10 minutes 25 seconds 424 msec
