                         Program Version 4.1.2  - RELEASE  -
|  1> ! bp86 def2-svp
|  2>
|  3> * xyzfile  -3 2 geom.xyz
|  4>
|  5> %eprnmr
|  6> nuclei = all Fe {fgrad, rho}
|  7> end
|  8>
|  9>
| 10>                          ****END OF INPUT****

CARTESIAN COORDINATES (ANGSTROEM)
---------------------------------
  Fe    -0.000018   -0.000019    0.000039
  C      1.942716   -0.035671    0.036581
  C     -1.942739    0.036085   -0.036470
  C     -0.035924    1.942941    0.036657
  C      0.035719   -1.942959   -0.036888
  C      0.035898    0.036368    1.942767
  C     -0.035628   -0.036600   -1.942726
  N      3.116883   -0.042390    0.042632
  N     -3.116896    0.042905   -0.042321
  N     -0.042631    3.117085    0.042625
  N      0.042282   -3.117112   -0.042932
  N      0.043454    0.043125    3.116934
  N     -0.043116   -0.043759   -3.116897

 Total Charge           Charge          ....   -3
 Multiplicity           Mult            ....    2
 Number of Electrons    NEL             ....  107
 Basis Dimension        Dim             ....  199

ORBITAL ENERGIES
----------------
                 SPIN UP ORBITALS
  NO   OCC          E(Eh)            E(eV)
   0   1.0000    -254.433334     -6923.4830
   1   1.0000     -29.203325      -794.6629
   2   1.0000     -25.165335      -684.7836
   3   1.0000     -25.147392      -684.2953
   4   1.0000     -25.147316      -684.2933
   5   1.0000     -13.560052      -368.9878
   6   1.0000     -13.560045      -368.9876
   7   1.0000     -13.560043      -368.9875
   8   1.0000     -13.560022      -368.9870
   9   1.0000     -13.559988      -368.9860
  10   1.0000     -13.559927      -368.9844
  11   1.0000      -9.497720      -258.4461
  12   1.0000      -9.497712      -258.4459
  13   1.0000      -9.497681      -258.4450
  14   1.0000      -9.497623      -258.4435
  15   1.0000      -9.497607      -258.4430
  16   1.0000      -9.497568      -258.4420
  17   1.0000      -2.888046       -78.5877
  18   1.0000      -1.727829       -47.0166
  19   1.0000      -1.689455       -45.9724
  20   1.0000      -1.689295       -45.9681
  21   1.0000      -0.364181        -9.9099
  22   1.0000      -0.360712        -9.8155
  23   1.0000      -0.360675        -9.8145
  24   1.0000      -0.360106        -9.7990
  25   1.0000      -0.359153        -9.7730
  26   1.0000      -0.359109        -9.7719
  27   1.0000      -0.040371        -1.0985
  28   1.0000       0.042879         1.1668
  29   1.0000       0.042920         1.1679
  30   1.0000       0.043816         1.1923
  31   1.0000       0.043880         1.1940
  32   1.0000       0.050351         1.3701
  33   1.0000       0.096332         2.6213
  34   1.0000       0.102456         2.7880
  35   1.0000       0.102490         2.7889
  36   1.0000       0.116387         3.1670
  37   1.0000       0.119372         3.2483
  38   1.0000       0.119408         3.2493
  39   1.0000       0.120751         3.2858
  40   1.0000       0.120834         3.2881
  41   1.0000       0.120847         3.2884
  42   1.0000       0.139043         3.7836
  43   1.0000       0.140383         3.8200
  44   1.0000       0.140398         3.8204
  45   1.0000       0.150614         4.0984
  46   1.0000       0.150643         4.0992
  47   1.0000       0.151953         4.1349
  48   1.0000       0.166010         4.5174
  49   1.0000       0.166065         4.5189
  50   1.0000       0.171476         4.6661
  51   1.0000       0.183186         4.9847
  52   1.0000       0.215795         5.8721
  53   1.0000       0.215816         5.8726
  54   0.0000       0.366157         9.9636
  55   0.0000       0.366235         9.9658
  56   0.0000       0.412698        11.2301
  57   0.0000       0.418776        11.3955
  58   0.0000       0.423461        11.5229

                 SPIN DOWN ORBITALS
  NO   OCC          E(Eh)            E(eV)
   0   1.0000    -254.433158     -6923.4782
   1   1.0000     -29.186311      -794.1999
   2   1.0000     -25.145606      -684.2467
   3   1.0000     -25.137948      -684.0383
   4   1.0000     -25.137915      -684.0374
   5   1.0000     -13.559537      -368.9737
   6   1.0000     -13.559530      -368.9736
   7   1.0000     -13.559527      -368.9735
   8   1.0000     -13.559508      -368.9730
   9   1.0000     -13.559476      -368.9721
  10   1.0000     -13.559414      -368.9704
  11   1.0000      -9.498306      -258.4620
  12   1.0000      -9.498297      -258.4618
  13   1.0000      -9.498265      -258.4609
  14   1.0000      -9.498208      -258.4594
  15   1.0000      -9.498191      -258.4589
  16   1.0000      -9.498152      -258.4578
  17   1.0000      -2.848023       -77.4987
  18   1.0000      -1.667286       -45.3692
  19   1.0000      -1.661033       -45.1990
  20   1.0000      -1.661007       -45.1983
  21   1.0000      -0.363448        -9.8899
  22   1.0000      -0.359951        -9.7948
  23   1.0000      -0.359917        -9.7938
  24   1.0000      -0.359325        -9.7777
  25   1.0000      -0.358366        -9.7516
  26   1.0000      -0.358326        -9.7506
  27   1.0000      -0.039184        -1.0662
  28   1.0000       0.043206         1.1757
  29   1.0000       0.043275         1.1776
  30   1.0000       0.047277         1.2865
  31   1.0000       0.047323         1.2877
  32   1.0000       0.050963         1.3868
  33   1.0000       0.104616         2.8467
  34   1.0000       0.104647         2.8476
  35   1.0000       0.108457         2.9513
  36   1.0000       0.117210         3.1894
  37   1.0000       0.121198         3.2980
  38   1.0000       0.121207         3.2982
  39   1.0000       0.121801         3.3144
  40   1.0000       0.123221         3.3530
  41   1.0000       0.123259         3.3541
  42   1.0000       0.138904         3.7798
  43   1.0000       0.141562         3.8521
  44   1.0000       0.141578         3.8525
  45   1.0000       0.151942         4.1345
  46   1.0000       0.152015         4.1365
  47   1.0000       0.152031         4.1370
  48   1.0000       0.165847         4.5129
  49   1.0000       0.165904         4.5145
  50   1.0000       0.172640         4.6978
  51   1.0000       0.233023         6.3409
  52   1.0000       0.233037         6.3413
  53   0.0000       0.248231         6.7547
  54   0.0000       0.379469        10.3259
  55   0.0000       0.379559        10.3283
  56   0.0000       0.412997        11.2382
  57   0.0000       0.427038        11.6203

MULLIKEN ATOMIC CHARGES AND SPIN POPULATIONS
--------------------------------------------
   0 Fe:   -1.572959    1.131367
   1 C :   -0.017130   -0.055252
   2 C :   -0.017145   -0.055257
   3 C :   -0.017280   -0.055215
   4 C :   -0.017263   -0.055234
   5 C :   -0.017201   -0.055151
   6 C :   -0.017215   -0.055133
   7 N :   -0.220609    0.033411
   8 N :   -0.220613    0.033417
   9 N :   -0.220663    0.033318
  10 N :   -0.220679    0.033349
  11 N :   -0.220625    0.033205
  12 N :   -0.220619    0.033174
Sum of atomic charges         :   -3.0000000

LOEWDIN ATOMIC CHARGES AND SPIN POPULATIONS
-------------------------------------------
   0 Fe:   -0.519398    0.986746
   1 C :   -0.098716   -0.028089
   2 C :   -0.098725   -0.028089
   3 C :   -0.098740   -0.028079
   4 C :   -0.098746   -0.028086
   5 C :   -0.098771   -0.028038
   6 C :   -0.098763   -0.028032
   7 N :   -0.314658    0.030365
   8 N :   -0.314652    0.030373
   9 N :   -0.314667    0.030281
  10 N :   -0.314666    0.030311
  11 N :   -0.314746    0.030183
  12 N :   -0.314753    0.030154

  Mayer bond orders larger than 0.1
B(  0-Fe,  1-C ) :   1.1351 B(  0-Fe,  2-C ) :   1.1351 B(  0-Fe,  3-C ) :   1.1348
B(  0-Fe,  4-C ) :   1.1348 B(  0-Fe,  5-C ) :   1.1351 B(  0-Fe,  6-C ) :   1.1351
B(  1-C ,  7-N ) :   2.8492 B(  2-C ,  8-N ) :   2.8492 B(  3-C ,  9-N ) :   2.8493
B(  4-C , 10-N ) :   2.8493 B(  5-C , 11-N ) :   2.8492 B(  6-C , 12-N ) :   2.8492

FINAL SINGLE POINT ENERGY     -1820.354836216935

DIPOLE MOMENT
-------------
                                X             Y             Z
Electronic contribution:     -0.00004       0.00007       0.00011
Nuclear contribution   :      0.00005       0.00005      -0.00011
                        -----------------------------------------
Total Dipole Moment    :      0.00001       0.00012      -0.00000
                        -----------------------------------------
Magnitude (a.u.)       :      0.00012
Magnitude (Debye)      :      0.00031

Rotational constants in cm-1:     0.023573     0.023566     0.022550
Rotational constants in MHz :   706.695549   706.491339   676.027389

                             ****ORCA TERMINATED NORMALLY****
TOTAL RUN TIME: 0 days 0 hours 0 minutes 17 seconds 7 msec
