                         Program Version 4.1.2  - RELEASE  -
|  1> ! bp86 def2-svp
|  2>
|  3> * xyzfile  -4 1 geom.xyz
|  4>
|  5> %eprnmr
|  6> nuclei = all Fe {fgrad, rho}
|  7> end
|  8>
|  9>
| 10>                          ****END OF INPUT****

CARTESIAN COORDINATES (ANGSTROEM)
---------------------------------
  Fe    -0.000066   -0.000034   -0.000001
  C      1.919852    0.000060    0.000058
  C     -1.920009    0.000054   -0.000022
  C      0.000032    1.920036   -0.000011
  C      0.000066   -1.920127   -0.000032
  C      0.000011   -0.000031    1.920227
  C     -0.000053   -0.000053   -1.920225
  N      3.102102    0.000123    0.000098
  N     -3.102222    0.000156   -0.000029
  N      0.000149    3.102259   -0.000003
  N      0.000158   -3.102340   -0.000061
  N      0.000058   -0.000023    3.102487
  N     -0.000078   -0.000080   -3.102486

 Total Charge           Charge          ....   -4
 Multiplicity           Mult            ....    1
 Number of Electrons    NEL             ....  108
 Basis Dimension        Dim             ....  199

ORBITAL ENERGIES
----------------

  NO   OCC          E(Eh)            E(eV)
   0   2.0000    -254.212622     -6917.4771
   1   2.0000     -28.972540      -788.3829
   2   2.0000     -24.924803      -678.2384
   3   2.0000     -24.924802      -678.2384
   4   2.0000     -24.924802      -678.2383
   5   2.0000     -13.383453      -364.1823
   6   2.0000     -13.383452      -364.1823
   7   2.0000     -13.383432      -364.1817
   8   2.0000     -13.383431      -364.1817
   9   2.0000     -13.383417      -364.1813
  10   2.0000     -13.383340      -364.1792
  11   2.0000      -9.324734      -253.7389
  12   2.0000      -9.324711      -253.7383
  13   2.0000      -9.324698      -253.7379
  14   2.0000      -9.324637      -253.7363
  15   2.0000      -9.324613      -253.7356
  16   2.0000      -9.324591      -253.7350
  17   2.0000      -2.645927       -71.9993
  18   2.0000      -1.461473       -39.7687
  19   2.0000      -1.461471       -39.7686
  20   2.0000      -1.461469       -39.7686
  21   2.0000      -0.187335        -5.0976
  22   2.0000      -0.183444        -4.9918
  23   2.0000      -0.183441        -4.9917
  24   2.0000      -0.183425        -4.9913
  25   2.0000      -0.181966        -4.9516
  26   2.0000      -0.181954        -4.9512
  27   2.0000       0.141600         3.8531
  28   2.0000       0.220154         5.9907
  29   2.0000       0.220167         5.9911
  30   2.0000       0.220174         5.9912
  31   2.0000       0.226970         6.1762
  32   2.0000       0.226973         6.1762
  33   2.0000       0.279458         7.6044
  34   2.0000       0.279463         7.6046
  35   2.0000       0.279464         7.6046
  36   2.0000       0.282453         7.6859
  37   2.0000       0.290585         7.9072
  38   2.0000       0.290591         7.9074
  39   2.0000       0.290597         7.9075
  40   2.0000       0.298454         8.1213
  41   2.0000       0.298458         8.1214
  42   2.0000       0.312955         8.5159
  43   2.0000       0.312964         8.5162
  44   2.0000       0.312966         8.5162
  45   2.0000       0.324249         8.8233
  46   2.0000       0.324260         8.8236
  47   2.0000       0.324263         8.8237
  48   2.0000       0.344714         9.3801
  49   2.0000       0.344717         9.3802
  50   2.0000       0.344719         9.3803
  51   2.0000       0.426218        11.5980
  52   2.0000       0.426219        11.5980
  53   2.0000       0.426221        11.5981
  54   0.0000       0.546591        14.8735
  55   0.0000       0.582478        15.8500
  56   0.0000       0.582539        15.8517
  57   0.0000       0.604201        16.4412
  58   0.0000       0.604209        16.4414

MULLIKEN ATOMIC CHARGES
-----------------------
   0 Fe:   -1.675453
   1 C :   -0.052271
   2 C :   -0.052342
   3 C :   -0.052369
   4 C :   -0.052405
   5 C :   -0.052416
   6 C :   -0.052413
   7 N :   -0.335046
   8 N :   -0.335005
   9 N :   -0.335035
  10 N :   -0.335026
  11 N :   -0.335109
  12 N :   -0.335111
Sum of atomic charges:   -4.0000000

LOEWDIN ATOMIC CHARGES
----------------------
   0 Fe:   -0.725383
   1 C :   -0.103920
   2 C :   -0.103958
   3 C :   -0.103940
   4 C :   -0.103960
   5 C :   -0.103947
   6 C :   -0.103946
   7 N :   -0.441845
   8 N :   -0.441829
   9 N :   -0.441812
  10 N :   -0.441810
  11 N :   -0.441825
  12 N :   -0.441826

  Mayer bond orders larger than 0.1
B(  0-Fe,  1-C ) :   1.2247 B(  0-Fe,  2-C ) :   1.2247 B(  0-Fe,  3-C ) :   1.2245
B(  0-Fe,  4-C ) :   1.2245 B(  0-Fe,  5-C ) :   1.2244 B(  0-Fe,  6-C ) :   1.2244
B(  1-C ,  7-N ) :   2.7528 B(  2-C ,  8-N ) :   2.7528 B(  3-C ,  9-N ) :   2.7529
B(  4-C , 10-N ) :   2.7529 B(  5-C , 11-N ) :   2.7528 B(  6-C , 12-N ) :   2.7528

FINAL SINGLE POINT ENERGY     -1820.017755109527

DIPOLE MOMENT
-------------
                                X             Y             Z
Electronic contribution:     -0.00032      -0.00015      -0.00001
Nuclear contribution   :      0.00019       0.00010       0.00000
                        -----------------------------------------
Total Dipole Moment    :     -0.00013      -0.00005      -0.00000
                        -----------------------------------------
Magnitude (a.u.)       :      0.00014
Magnitude (Debye)      :      0.00035

Rotational constants in cm-1:     0.023534     0.023532     0.023531
Rotational constants in MHz :   705.530186   705.481635   705.441925

                             ****ORCA TERMINATED NORMALLY****
TOTAL RUN TIME: 0 days 0 hours 0 minutes 11 seconds 187 msec
