                         Program Version 4.1.2  - RELEASE  -
|  1> ! bp86 def2-svp
|  2>
|  3> * xyzfile 0 2 geom.xyz
|  4>
|  5> %eprnmr
|  6> nuclei = all Fe {fgrad, rho}
|  7> end
|  8>
|  9>
| 10>                          ****END OF INPUT****

CARTESIAN COORDINATES (ANGSTROEM)
---------------------------------
  Fe    -0.006386   -0.186355   -0.663873
  S      1.700097   -1.679401   -0.211164
  S      1.544625    1.540727   -0.708019
  S     -1.650605   -1.845280   -0.361512
  S     -1.630088    1.377547   -0.676264
  C      5.519615    0.881847   -0.206807
  C      5.608257   -0.502000   -0.003554
  C      4.443638   -1.272539   -0.005198
  C      3.199454   -0.650906   -0.183607
  C      3.094532    0.733194   -0.409947
  C      4.285190    1.493448   -0.407038
  C     -3.154026   -0.908425   -0.248825
  C     -3.177542    0.490342   -0.380027
  C     -4.393958   -1.552134   -0.034064
  C     -5.579011   -0.820398    0.020747
  C     -5.576172    0.571982   -0.142694
  C     -4.365396    1.227566   -0.352609
  C      1.327233   -1.941070    1.590112
  C     -1.323662    2.111848    0.997698
  C     -0.711614    1.123274    1.950115
  C      0.644647   -0.760063    2.223933
  N     -0.053784    0.070078    1.415251
  C      0.705902   -0.552975    3.601994
  C     -0.731125    1.353476    3.325783
  C     -0.002671    0.508876    4.160610
  H      6.422278    1.486938   -0.213744
  H      6.575128   -0.975611    0.138374
  H      4.500954   -2.349197    0.133391
  H      4.225942    2.566259   -0.569654
  H     -4.418588   -2.632640    0.082643
  H     -6.519720   -1.340501    0.182757
  H     -6.500366    1.140228   -0.116120
  H     -4.334036    2.305904   -0.485791
  H      2.248636   -2.204242    2.113445
  H      0.668884   -2.815632    1.591764
  H     -2.261147    2.525851    1.370666
  H     -0.616363    2.926946    0.814300
  H      1.306881   -1.209271    4.222238
  H     -1.279123    2.200577    3.725636
  H      0.026490    0.686156    5.231422
  N      0.094944   -0.315323   -2.387067
  O      0.094422    0.351832   -3.374413

 Total Charge           Charge          ....    0
 Multiplicity           Mult            ....    2
 Number of Electrons    NEL             ....  241
 Basis Dimension        Dim             ....  486

ORBITAL ENERGIES
----------------
                 SPIN UP ORBITALS
  NO   OCC          E(Eh)            E(eV)
   0   1.0000    -254.811983     -6933.7866
   1   1.0000     -88.139403     -2398.3951
   2   1.0000     -88.133866     -2398.2444
   3   1.0000     -88.053459     -2396.0564
   4   1.0000     -88.048606     -2395.9244
   5   1.0000     -29.571005      -804.6679
   6   1.0000     -25.526215      -694.6036
   7   1.0000     -25.520556      -694.4496
   8   1.0000     -25.518176      -694.3849
   9   1.0000     -18.837868      -512.6044
  10   1.0000     -14.105666      -383.8347
  11   1.0000     -14.067827      -382.8050
  12   1.0000      -9.993013      -271.9237
  13   1.0000      -9.992913      -271.9210
  14   1.0000      -9.970230      -271.3038
  15   1.0000      -9.970040      -271.2986
  16   1.0000      -9.962131      -271.0834
  17   1.0000      -9.954590      -270.8782
  18   1.0000      -9.954411      -270.8733
  19   1.0000      -9.944020      -270.5905
  20   1.0000      -9.943845      -270.5858
  21   1.0000      -9.942558      -270.5508
  22   1.0000      -9.940947      -270.5069
  23   1.0000      -9.927737      -270.1475
  24   1.0000      -9.926278      -270.1078
  25   1.0000      -9.919903      -269.9343
  26   1.0000      -9.918623      -269.8994
  27   1.0000      -9.916326      -269.8369
  28   1.0000      -9.915373      -269.8110
  29   1.0000      -9.915022      -269.8015
  30   1.0000      -9.914071      -269.7756
  31   1.0000      -7.731041      -210.3723
  32   1.0000      -7.725823      -210.2303
  33   1.0000      -7.647899      -208.1099
  34   1.0000      -7.643081      -207.9788
  35   1.0000      -5.758348      -156.6926
  36   1.0000      -5.755107      -156.6044
  37   1.0000      -5.753326      -156.5560
  38   1.0000      -5.749800      -156.4600
  39   1.0000      -5.749334      -156.4473
  40   1.0000      -5.744007      -156.3024
  41   1.0000      -5.675712      -154.4440
  42   1.0000      -5.670921      -154.3136
  43   1.0000      -5.670475      -154.3015
  44   1.0000      -5.666835      -154.2024
  45   1.0000      -5.665733      -154.1724
  46   1.0000      -5.661902      -154.0682
  47   1.0000      -3.268153       -88.9310
  48   1.0000      -2.096951       -57.0609
  49   1.0000      -2.081050       -56.6283
  50   1.0000      -2.075088       -56.4660
  51   1.0000      -1.058746       -28.8099
  52   1.0000      -0.904617       -24.6159
  53   1.0000      -0.795734       -21.6530
  54   1.0000      -0.791848       -21.5473
  55   1.0000      -0.771736       -21.0000
  56   1.0000      -0.761176       -20.7127
  57   1.0000      -0.745241       -20.2791
  58   1.0000      -0.719428       -19.5766
  59   1.0000      -0.695577       -18.9276
  60   1.0000      -0.693143       -18.8614
  61   1.0000      -0.680978       -18.5304
  62   1.0000      -0.666725       -18.1425
  63   1.0000      -0.635123       -17.2826
  64   1.0000      -0.620864       -16.8946
  65   1.0000      -0.609451       -16.5840
  66   1.0000      -0.599296       -16.3077
  67   1.0000      -0.582921       -15.8621
  68   1.0000      -0.581323       -15.8186
  69   1.0000      -0.574934       -15.6448
  70   1.0000      -0.540071       -14.6961
  71   1.0000      -0.538368       -14.6497
  72   1.0000      -0.521279       -14.1847
  73   1.0000      -0.515008       -14.0141
  74   1.0000      -0.493926       -13.4404
  75   1.0000      -0.478303       -13.0153
  76   1.0000      -0.462877       -12.5955
  77   1.0000      -0.448054       -12.1922
  78   1.0000      -0.445716       -12.1286
  79   1.0000      -0.443223       -12.0607
  80   1.0000      -0.432839       -11.7782
  81   1.0000      -0.426654       -11.6098
  82   1.0000      -0.421846       -11.4790
  83   1.0000      -0.416648       -11.3376
  84   1.0000      -0.411463       -11.1965
  85   1.0000      -0.410325       -11.1655
  86   1.0000      -0.408228       -11.1084
  87   1.0000      -0.406695       -11.0667
  88   1.0000      -0.398957       -10.8562
  89   1.0000      -0.396794       -10.7973
  90   1.0000      -0.386141       -10.5074
  91   1.0000      -0.379864       -10.3366
  92   1.0000      -0.368500       -10.0274
  93   1.0000      -0.363218        -9.8837
  94   1.0000      -0.361131        -9.8269
  95   1.0000      -0.358428        -9.7533
  96   1.0000      -0.355184        -9.6651
  97   1.0000      -0.344193        -9.3660
  98   1.0000      -0.337400        -9.1811
  99   1.0000      -0.326019        -8.8714
 100   1.0000      -0.317840        -8.6489
 101   1.0000      -0.309583        -8.4242
 102   1.0000      -0.306523        -8.3409
 103   1.0000      -0.305907        -8.3241
 104   1.0000      -0.298418        -8.1204
 105   1.0000      -0.294728        -8.0200
 106   1.0000      -0.280250        -7.6260
 107   1.0000      -0.263868        -7.1802
 108   1.0000      -0.260427        -7.0866
 109   1.0000      -0.257507        -7.0071
 110   1.0000      -0.255252        -6.9458
 111   1.0000      -0.247366        -6.7312
 112   1.0000      -0.234112        -6.3705
 113   1.0000      -0.231921        -6.3109
 114   1.0000      -0.212911        -5.7936
 115   1.0000      -0.210110        -5.7174
 116   1.0000      -0.201856        -5.4928
 117   1.0000      -0.183505        -4.9934
 118   1.0000      -0.170747        -4.6463
 119   1.0000      -0.156972        -4.2714
 120   1.0000      -0.141576        -3.8525
 121   0.0000      -0.100119        -2.7244
 122   0.0000      -0.094752        -2.5783
 123   0.0000      -0.086403        -2.3511
 124   0.0000      -0.082891        -2.2556
 125   0.0000      -0.059347        -1.6149

                 SPIN DOWN ORBITALS
  NO   OCC          E(Eh)            E(eV)
   0   1.0000    -254.811864     -6933.7833
   1   1.0000     -88.139467     -2398.3968
   2   1.0000     -88.133698     -2398.2399
   3   1.0000     -88.053520     -2396.0581
   4   1.0000     -88.048634     -2395.9251
   5   1.0000     -29.559412      -804.3525
   6   1.0000     -25.516227      -694.3318
   7   1.0000     -25.513189      -694.2492
   8   1.0000     -25.509240      -694.1417
   9   1.0000     -18.833857      -512.4953
  10   1.0000     -14.100602      -383.6969
  11   1.0000     -14.067027      -382.7833
  12   1.0000      -9.993091      -271.9258
  13   1.0000      -9.992872      -271.9199
  14   1.0000      -9.970268      -271.3048
  15   1.0000      -9.970012      -271.2978
  16   1.0000      -9.962158      -271.0841
  17   1.0000      -9.954560      -270.8773
  18   1.0000      -9.954369      -270.8721
  19   1.0000      -9.944062      -270.5917
  20   1.0000      -9.943888      -270.5870
  21   1.0000      -9.942593      -270.5517
  22   1.0000      -9.940997      -270.5083
  23   1.0000      -9.927726      -270.1472
  24   1.0000      -9.926273      -270.1076
  25   1.0000      -9.919924      -269.9349
  26   1.0000      -9.918621      -269.8994
  27   1.0000      -9.916306      -269.8364
  28   1.0000      -9.915334      -269.8099
  29   1.0000      -9.915025      -269.8015
  30   1.0000      -9.914086      -269.7760
  31   1.0000      -7.731102      -210.3740
  32   1.0000      -7.725644      -210.2255
  33   1.0000      -7.647960      -208.1116
  34   1.0000      -7.643107      -207.9795
  35   1.0000      -5.758383      -156.6936
  36   1.0000      -5.755152      -156.6056
  37   1.0000      -5.753190      -156.5522
  38   1.0000      -5.749559      -156.4535
  39   1.0000      -5.749515      -156.4523
  40   1.0000      -5.743693      -156.2938
  41   1.0000      -5.675770      -154.4456
  42   1.0000      -5.670930      -154.3139
  43   1.0000      -5.670724      -154.3082
  44   1.0000      -5.666781      -154.2010
  45   1.0000      -5.665822      -154.1748
  46   1.0000      -5.661919      -154.0687
  47   1.0000      -3.241838       -88.2149
  48   1.0000      -2.065304       -56.1998
  49   1.0000      -2.059336       -56.0374
  50   1.0000      -2.051583       -55.8264
  51   1.0000      -1.051379       -28.6095
  52   1.0000      -0.903882       -24.5959
  53   1.0000      -0.795773       -21.6541
  54   1.0000      -0.791794       -21.5458
  55   1.0000      -0.771693       -20.9988
  56   1.0000      -0.761007       -20.7080
  57   1.0000      -0.745073       -20.2745
  58   1.0000      -0.719315       -19.5736
  59   1.0000      -0.695649       -18.9296
  60   1.0000      -0.693213       -18.8633
  61   1.0000      -0.680952       -18.5297
  62   1.0000      -0.666702       -18.1419
  63   1.0000      -0.634947       -17.2778
  64   1.0000      -0.620805       -16.8930
  65   1.0000      -0.608986       -16.5714
  66   1.0000      -0.599387       -16.3101
  67   1.0000      -0.581120       -15.8131
  68   1.0000      -0.576337       -15.6829
  69   1.0000      -0.571093       -15.5402
  70   1.0000      -0.540000       -14.6942
  71   1.0000      -0.538390       -14.6503
  72   1.0000      -0.521262       -14.1843
  73   1.0000      -0.514925       -14.0118
  74   1.0000      -0.493556       -13.4303
  75   1.0000      -0.478111       -13.0101
  76   1.0000      -0.462479       -12.5847
  77   1.0000      -0.448035       -12.1916
  78   1.0000      -0.445480       -12.1221
  79   1.0000      -0.443030       -12.0555
  80   1.0000      -0.427595       -11.6354
  81   1.0000      -0.423806       -11.5323
  82   1.0000      -0.421497       -11.4695
  83   1.0000      -0.416120       -11.3232
  84   1.0000      -0.411255       -11.1908
  85   1.0000      -0.408867       -11.1258
  86   1.0000      -0.405235       -11.0270
  87   1.0000      -0.400590       -10.9006
  88   1.0000      -0.396676       -10.7941
  89   1.0000      -0.388518       -10.5721
  90   1.0000      -0.385983       -10.5031
  91   1.0000      -0.379582       -10.3290
  92   1.0000      -0.367961       -10.0127
  93   1.0000      -0.363020        -9.8783
  94   1.0000      -0.360746        -9.8164
  95   1.0000      -0.357262        -9.7216
  96   1.0000      -0.353826        -9.6281
  97   1.0000      -0.344169        -9.3653
  98   1.0000      -0.336684        -9.1616
  99   1.0000      -0.325568        -8.8592
 100   1.0000      -0.317636        -8.6433
 101   1.0000      -0.306203        -8.3322
 102   1.0000      -0.306066        -8.3285
 103   1.0000      -0.305138        -8.3032
 104   1.0000      -0.298226        -8.1152
 105   1.0000      -0.293476        -7.9859
 106   1.0000      -0.278111        -7.5678
 107   1.0000      -0.263874        -7.1804
 108   1.0000      -0.259029        -7.0485
 109   1.0000      -0.256930        -6.9914
 110   1.0000      -0.254916        -6.9366
 111   1.0000      -0.242948        -6.6109
 112   1.0000      -0.233468        -6.3530
 113   1.0000      -0.231594        -6.3020
 114   1.0000      -0.210020        -5.7149
 115   1.0000      -0.203845        -5.5469
 116   1.0000      -0.187057        -5.0901
 117   1.0000      -0.172964        -4.7066
 118   1.0000      -0.169309        -4.6071
 119   1.0000      -0.152452        -4.1484
 120   0.0000      -0.101670        -2.7666
 121   0.0000      -0.097282        -2.6472
 122   0.0000      -0.085746        -2.3333
 123   0.0000      -0.079675        -2.1681
 124   0.0000      -0.077852        -2.1185

MULLIKEN ATOMIC CHARGES AND SPIN POPULATIONS
--------------------------------------------
   0 Fe:   -0.035413    0.637748
   1 S :    0.083409    0.023976
   2 S :   -0.135013   -0.018904
   3 S :   -0.143972   -0.009978
   4 S :    0.114320   -0.021952
   5 C :    0.025329   -0.001471
   6 C :   -0.010293    0.002781
   7 C :    0.017639   -0.000151
   8 C :   -0.106737   -0.001519
   9 C :    0.023875   -0.001551
  10 C :   -0.019806    0.002044
  11 C :    0.025673   -0.001687
  12 C :   -0.117249   -0.001772
  13 C :   -0.028036   -0.000050
  14 C :    0.025841    0.000257
  15 C :   -0.011753   -0.000875
  16 C :    0.024278    0.000524
  17 C :   -0.019792   -0.001060
  18 C :   -0.023126    0.003723
  19 C :    0.024770   -0.003509
  20 C :    0.026770    0.000813
  21 N :   -0.067762    0.025220
  22 C :   -0.005219    0.001762
  23 C :   -0.002493    0.001500
  24 C :    0.063614   -0.002271
  25 H :   -0.002122   -0.000020
  26 H :   -0.007915   -0.000110
  27 H :   -0.010072    0.000194
  28 H :   -0.007912   -0.000284
  29 H :   -0.008212   -0.000076
  30 H :   -0.004270   -0.000059
  31 H :   -0.007861   -0.000045
  32 H :   -0.011020   -0.000156
  33 H :    0.065487   -0.000394
  34 H :    0.104216   -0.000176
  35 H :    0.067449   -0.000322
  36 H :    0.106279   -0.000067
  37 H :    0.005437    0.001467
  38 H :    0.005005    0.000282
  39 H :    0.019302    0.000085
  40 N :    0.065689    0.229417
  41 O :   -0.108334    0.136667
Sum of atomic charges         :   -0.0000000

LOEWDIN ATOMIC CHARGES AND SPIN POPULATIONS
-------------------------------------------
   0 Fe:   -0.543973    0.606888
   1 S :    0.538503    0.026080
   2 S :    0.091215   -0.013666
   3 S :    0.070128   -0.006934
   4 S :    0.576414   -0.013784
   5 C :   -0.019763   -0.000944
   6 C :   -0.051532    0.002146
   7 C :   -0.037099    0.000337
   8 C :   -0.204212   -0.000654
   9 C :   -0.166374   -0.002026
  10 C :   -0.043893    0.001276
  11 C :   -0.167661   -0.001605
  12 C :   -0.206297   -0.002375
  13 C :   -0.043739   -0.000219
  14 C :   -0.019869    0.000085
  15 C :   -0.053044   -0.000731
  16 C :   -0.040522    0.000125
  17 C :   -0.130090   -0.001083
  18 C :   -0.128915    0.001569
  19 C :    0.021197   -0.002227
  20 C :    0.021200    0.002450
  21 N :    0.015987    0.027930
  22 C :   -0.030429    0.001791
  23 C :   -0.029270    0.001033
  24 C :    0.011384   -0.001592
  25 H :    0.031734   -0.000052
  26 H :    0.028870    0.000004
  27 H :    0.028652    0.000169
  28 H :    0.030852   -0.000153
  29 H :    0.030828   -0.000050
  30 H :    0.031142   -0.000040
  31 H :    0.028800   -0.000063
  32 H :    0.027652   -0.000160
  33 H :    0.040363   -0.000152
  34 H :    0.050928   -0.000087
  35 H :    0.040272    0.000038
  36 H :    0.048381   -0.000052
  37 H :    0.039070    0.001049
  38 H :    0.039271    0.000188
  39 H :    0.041328   -0.000013
  40 N :    0.079329    0.229741
  41 O :   -0.046818    0.145765

  Mayer bond orders larger than 0.1
B(  0-Fe,  1-S ) :   0.6639 B(  0-Fe,  2-S ) :   0.8570 B(  0-Fe,  3-S ) :   0.8214
B(  0-Fe,  4-S ) :   0.7492 B(  0-Fe, 21-N ) :   0.4654 B(  0-Fe, 40-N ) :   1.4761
B(  0-Fe, 41-O ) :   0.4851 B(  1-S ,  8-C ) :   0.8988 B(  1-S , 17-C ) :   0.9611
B(  2-S ,  9-C ) :   1.0917 B(  3-S , 11-C ) :   1.1047 B(  4-S , 12-C ) :   0.8925
B(  4-S , 18-C ) :   0.9552 B(  5-C ,  6-C ) :   1.3365 B(  5-C , 10-C ) :   1.4174
B(  5-C , 25-H ) :   0.9795 B(  6-C ,  7-C ) :   1.3960 B(  6-C , 26-H ) :   0.9802
B(  7-C ,  8-C ) :   1.3817 B(  7-C , 27-H ) :   0.9758 B(  8-C ,  9-C ) :   1.3693
B(  9-C , 10-C ) :   1.3394 B( 10-C , 28-H ) :   0.9781 B( 11-C , 12-C ) :   1.3698
B( 11-C , 13-C ) :   1.3338 B( 12-C , 16-C ) :   1.3800 B( 13-C , 14-C ) :   1.4198
B( 13-C , 29-H ) :   0.9795 B( 14-C , 15-C ) :   1.3348 B( 14-C , 30-H ) :   0.9786
B( 15-C , 16-C ) :   1.3972 B( 15-C , 31-H ) :   0.9810 B( 16-C , 32-H ) :   0.9735
B( 17-C , 20-C ) :   1.0008 B( 17-C , 33-H ) :   0.9245 B( 17-C , 34-H ) :   0.9080
B( 18-C , 19-C ) :   0.9981 B( 18-C , 35-H ) :   0.9219 B( 18-C , 36-H ) :   0.9068
B( 19-C , 21-N ) :   1.3873 B( 19-C , 23-C ) :   1.4117 B( 20-C , 21-N ) :   1.3822
B( 20-C , 22-C ) :   1.4142 B( 22-C , 24-C ) :   1.3945 B( 22-C , 37-H ) :   0.9643
B( 23-C , 24-C ) :   1.3946 B( 23-C , 38-H ) :   0.9667 B( 24-C , 39-H ) :   0.9674
B( 40-N , 41-O ) :   1.7198

FINAL SINGLE POINT ENERGY     -3773.437513938857

DIPOLE MOMENT
-------------
                                X             Y             Z
Electronic contribution:     -0.00946      -2.59262     -15.63747
Nuclear contribution   :      0.10430       3.01092      18.66164
                        -----------------------------------------
Total Dipole Moment    :      0.09483       0.41830       3.02417
                        -----------------------------------------
Magnitude (a.u.)       :      3.05444
Magnitude (Debye)      :      7.76377

Rotational constants in cm-1:     0.009523     0.003960     0.003642
Rotational constants in MHz :   285.489947   118.711836   109.171721

                             ****ORCA TERMINATED NORMALLY****
TOTAL RUN TIME: 0 days 0 hours 2 minutes 2 seconds 948 msec
