                         Program Version 4.1.2  - RELEASE  -
|  1> ! bp86 def2-svp
|  2>
|  3> * xyzfile -2 5 geom.xyz
|  4>
|  5> %eprnmr
|  6> nuclei = all Fe {fgrad, rho}
|  7> end
|  8>
|  9>
| 10>                          ****END OF INPUT****

CARTESIAN COORDINATES (ANGSTROEM)
---------------------------------
  Fe    -0.005543   -0.010542    0.000078
  Cl     2.340289   -0.142823    0.000187
  Cl    -0.915720    2.154368   -0.000255
  Cl    -0.709682   -1.000364   -2.005230
  Cl    -0.709344   -1.000639    2.005220

 Total Charge           Charge          ....   -2
 Multiplicity           Mult            ....    5
 Number of Electrons    NEL             ....   96
 Basis Dimension        Dim             ....  103

ORBITAL ENERGIES
----------------
                 SPIN UP ORBITALS
  NO   OCC          E(Eh)            E(eV)
   0   1.0000    -254.446911     -6923.8524
   1   1.0000    -100.297031     -2729.2210
   2   1.0000    -100.296962     -2729.2191
   3   1.0000    -100.295849     -2729.1888
   4   1.0000    -100.295757     -2729.1863
   5   1.0000     -29.226543      -795.2947
   6   1.0000     -25.179773      -685.1765
   7   1.0000     -25.179112      -685.1585
   8   1.0000     -25.151322      -684.4023
   9   1.0000      -8.779975      -238.9153
  10   1.0000      -8.779911      -238.9135
  11   1.0000      -8.778728      -238.8813
  12   1.0000      -8.778624      -238.8785
  13   1.0000      -6.606229      -179.7646
  14   1.0000      -6.606209      -179.7641
  15   1.0000      -6.605021      -179.7317
  16   1.0000      -6.604896      -179.7283
  17   1.0000      -6.602718      -179.6691
  18   1.0000      -6.602698      -179.6685
  19   1.0000      -6.602363      -179.6594
  20   1.0000      -6.602345      -179.6589
  21   1.0000      -6.601434      -179.6342
  22   1.0000      -6.601424      -179.6339
  23   1.0000      -6.601183      -179.6273
  24   1.0000      -6.601068      -179.6242
  25   1.0000      -2.985981       -81.2527
  26   1.0000      -1.821103       -49.5547
  27   1.0000      -1.819632       -49.5147
  28   1.0000      -1.762266       -47.9537
  29   1.0000      -0.343312        -9.3420
  30   1.0000      -0.337165        -9.1747
  31   1.0000      -0.335746        -9.1361
  32   1.0000      -0.335219        -9.1218
  33   1.0000       0.021459         0.5839
  34   1.0000       0.031219         0.8495
  35   1.0000       0.041694         1.1346
  36   1.0000       0.042766         1.1637
  37   1.0000       0.050453         1.3729
  38   1.0000       0.074006         2.0138
  39   1.0000       0.074246         2.0203
  40   1.0000       0.077601         2.1116
  41   1.0000       0.078521         2.1367
  42   1.0000       0.100991         2.7481
  43   1.0000       0.101590         2.7644
  44   1.0000       0.102556         2.7907
  45   1.0000       0.117626         3.2008
  46   1.0000       0.143717         3.9107
  47   1.0000       0.145807         3.9676
  48   1.0000       0.146488         3.9861
  49   1.0000       0.161755         4.4016
  50   0.0000       0.313940         8.5427
  51   0.0000       0.413613        11.2550
  52   0.0000       0.474429        12.9099
  53   0.0000       0.491481        13.3739
  54   0.0000       0.494313        13.4509

                 SPIN DOWN ORBITALS
  NO   OCC          E(Eh)            E(eV)
   0   1.0000    -254.446307     -6923.8360
   1   1.0000    -100.296506     -2729.2067
   2   1.0000    -100.296437     -2729.2048
   3   1.0000    -100.295322     -2729.1745
   4   1.0000    -100.295233     -2729.1720
   5   1.0000     -29.164105      -793.5956
   6   1.0000     -25.128620      -683.7845
   7   1.0000     -25.128235      -683.7740
   8   1.0000     -25.111707      -683.3243
   9   1.0000      -8.779460      -238.9013
  10   1.0000      -8.779396      -238.8995
  11   1.0000      -8.778211      -238.8673
  12   1.0000      -8.778111      -238.8645
  13   1.0000      -6.605422      -179.7427
  14   1.0000      -6.605402      -179.7421
  15   1.0000      -6.604194      -179.7093
  16   1.0000      -6.604080      -179.7061
  17   1.0000      -6.601984      -179.6491
  18   1.0000      -6.601963      -179.6486
  19   1.0000      -6.601815      -179.6445
  20   1.0000      -6.601796      -179.6440
  21   1.0000      -6.600700      -179.6142
  22   1.0000      -6.600692      -179.6140
  23   1.0000      -6.600643      -179.6126
  24   1.0000      -6.600534      -179.6096
  25   1.0000      -2.839496       -77.2666
  26   1.0000      -1.665806       -45.3289
  27   1.0000      -1.665298       -45.3151
  28   1.0000      -1.641460       -44.6664
  29   1.0000      -0.339871        -9.2484
  30   1.0000      -0.333920        -9.0864
  31   1.0000      -0.332497        -9.0477
  32   1.0000      -0.331997        -9.0341
  33   1.0000       0.031891         0.8678
  34   1.0000       0.061684         1.6785
  35   1.0000       0.062324         1.6959
  36   1.0000       0.062917         1.7121
  37   1.0000       0.081212         2.2099
  38   1.0000       0.085859         2.3363
  39   1.0000       0.087154         2.3716
  40   1.0000       0.087215         2.3732
  41   1.0000       0.087535         2.3820
  42   1.0000       0.103485         2.8160
  43   1.0000       0.103899         2.8272
  44   1.0000       0.105378         2.8675
  45   1.0000       0.225673         6.1409
  46   0.0000       0.230995         6.2857
  47   0.0000       0.244089         6.6420
  48   0.0000       0.269689         7.3386
  49   0.0000       0.270448         7.3593
  50   0.0000       0.316683         8.6174

MULLIKEN ATOMIC CHARGES AND SPIN POPULATIONS
--------------------------------------------
   0 Fe:    0.492964    3.759922
   1 Cl:   -0.624561    0.059746
   2 Cl:   -0.624288    0.060368
   3 Cl:   -0.622078    0.059980
   4 Cl:   -0.622037    0.059984
Sum of atomic charges         :   -2.0000000

LOEWDIN ATOMIC CHARGES AND SPIN POPULATIONS
-------------------------------------------
   0 Fe:    0.011415    3.695388
   1 Cl:   -0.504882    0.075716
   2 Cl:   -0.504088    0.076490
   3 Cl:   -0.501257    0.076199
   4 Cl:   -0.501189    0.076208

  Mayer bond orders larger than 0.1
B(  0-Fe,  1-Cl) :   0.6602 B(  0-Fe,  2-Cl) :   0.6607 B(  0-Fe,  3-Cl) :   0.6645
B(  0-Fe,  4-Cl) :   0.6645

FINAL SINGLE POINT ENERGY     -3104.354580863837

DIPOLE MOMENT
-------------
                                X             Y             Z
Electronic contribution:     -0.02479      -0.04304       0.00042
Nuclear contribution   :      0.00733       0.01394      -0.00010
                        -----------------------------------------
Total Dipole Moment    :     -0.01745      -0.02910       0.00031
                        -----------------------------------------
Magnitude (a.u.)       :      0.03393
Magnitude (Debye)      :      0.08625

Rotational constants in cm-1:     0.033997     0.033750     0.029753
Rotational constants in MHz :  1019.212481  1011.800376   891.974021

                             ****ORCA TERMINATED NORMALLY****
TOTAL RUN TIME: 0 days 0 hours 0 minutes 4 seconds 169 msec
