                         Program Version 4.1.2  - RELEASE  -
|  1> ! bp86 def2-svp
|  2>
|  3> * xyzfile  1 2 geom.xyz
|  4>
|  5> %eprnmr
|  6> nuclei = all Fe {fgrad, rho}
|  7> end
|  8>
|  9>
| 10>                          ****END OF INPUT****

CARTESIAN COORDINATES (ANGSTROEM)
---------------------------------
  Fe    -0.062188    0.007525    0.020326
  N      1.338624    1.439807    0.149970
  N     -1.456699    1.443319   -0.117288
  N      0.086882    0.006752   -1.958463
  N     -0.047510   -0.007591   -6.145532
  C      2.698154    1.237640    0.269546
  C      1.170907    2.811778    0.089393
  C     -1.277660    2.815494   -0.141492
  C     -2.818108    1.242948   -0.211030
  C      3.392676    2.501052    0.290598
  C      2.445812    3.477299    0.176816
  C     -2.548453    3.482339   -0.271085
  C     -3.503345    2.509021   -0.302253
  C      3.332010    0.002285    0.316200
  C     -0.050133    3.462520   -0.052187
  C      0.139998    1.158204   -2.675390
  C      0.120842    1.200991   -4.050030
  C      0.014807   -0.003632   -4.796396
  C     -0.010427   -1.205062   -4.037609
  C      0.030652   -1.150563   -2.664926
  C     -0.093335   -1.276654   -6.881245
  C     -0.054674    1.255983   -6.890426
  H      0.193981    2.074550   -2.104970
  H      0.180483    2.167782   -4.534933
  H     -0.085997   -2.176230   -4.511623
  H      0.013608   -2.062201   -2.086348
  H     -0.103347   -1.051676   -7.946291
  H     -0.992075   -1.849297   -6.627158
  H      0.787212   -1.885044   -6.649206
  H     -0.066560    1.023218   -7.953773
  H      0.838355    1.847131   -6.662226
  H     -0.941654    1.848868   -6.641277
  H      4.414990    0.001491    0.399155
  H     -0.044234    4.547403   -0.092096
  N     -1.460362   -1.429908   -0.102012
  N      1.338859   -1.429942    0.123075
  N     -0.211744    0.003923    2.009490
  C     -3.454937    0.008380   -0.229582
  C      2.699261   -1.232057    0.235751
  C     -2.821984   -1.227767   -0.186184
  C     -1.285419   -2.802896   -0.107495
  C      1.169803   -2.801231    0.039670
  C     -0.085857   -1.153632    2.706238
  C     -0.281649    1.149109    2.734657
  H     -4.538790    0.009321   -0.298953
  C      3.393078   -2.496055    0.226255
  C     -3.512032   -2.492952   -0.244444
  C     -2.559511   -3.468685   -0.206218
  C     -0.056130   -3.450778   -0.060060
  C      2.444479   -3.469274    0.098232
  C      0.032474   -1.212088    4.075294
  H     -0.070228   -2.061378    2.119673
  C     -0.200783    1.186225    4.108327
  H     -0.400895    2.067092    2.173737
  H     -0.052531   -4.535756   -0.099749
  C      0.008621   -0.014206    4.841336
  H      0.154994   -2.182104    4.541573
  H     -0.269692    2.149772    4.597677
  N      0.172466   -0.016473    6.184539
  C      0.208122    1.249313    6.925875
  C      0.507126   -1.258159    6.896289
  H      0.219656    1.018560    7.990075
  H      1.100610    1.834123    6.671852
  H     -0.679343    1.846856    6.701019
  H      0.586206   -1.032665    7.958710
  H     -0.272521   -2.012401    6.752855
  H      1.462641   -1.662218    6.541456
  H      4.467255    2.608315    0.374355
  H      2.578722    4.551390    0.139184
  H     -2.672158    4.556585   -0.328213
  H     -4.577164    2.619867   -0.389870
  H      4.467710   -2.605433    0.304885
  H     -4.586882   -2.601304   -0.321083
  H     -2.686659   -4.543460   -0.244744
  H      2.574781   -4.542799    0.040650

 Total Charge           Charge          ....    1
 Multiplicity           Mult            ....    2
 Number of Electrons    NEL             ....  317
 Basis Dimension        Dim             ....  779

ORBITAL ENERGIES
----------------
                 SPIN UP ORBITALS
  NO   OCC          E(Eh)            E(eV)
   0   1.0000    -254.933813     -6937.1017
   1   1.0000     -29.696377      -808.0795
   2   1.0000     -25.655321      -698.1168
   3   1.0000     -25.649819      -697.9670
   4   1.0000     -25.634684      -697.5552
   5   1.0000     -14.151451      -385.0806
   6   1.0000     -14.151010      -385.0686
   7   1.0000     -14.134190      -384.6109
   8   1.0000     -14.133563      -384.5938
   9   1.0000     -14.112151      -384.0112
  10   1.0000     -14.112095      -384.0096
  11   1.0000     -14.111946      -384.0056
  12   1.0000     -14.111855      -384.0031
  13   1.0000     -10.065073      -273.8846
  14   1.0000     -10.064502      -273.8690
  15   1.0000     -10.043615      -273.3007
  16   1.0000     -10.042775      -273.2778
  17   1.0000     -10.042752      -273.2772
  18   1.0000     -10.042197      -273.2621
  19   1.0000     -10.042169      -273.2613
  20   1.0000     -10.042089      -273.2591
  21   1.0000     -10.041568      -273.2450
  22   1.0000     -10.041433      -273.2413
  23   1.0000     -10.035414      -273.0775
  24   1.0000     -10.035404      -273.0772
  25   1.0000     -10.035249      -273.0730
  26   1.0000     -10.035206      -273.0718
  27   1.0000     -10.030727      -272.9500
  28   1.0000     -10.030672      -272.9485
  29   1.0000     -10.030618      -272.9470
  30   1.0000     -10.030558      -272.9454
  31   1.0000     -10.012613      -272.4571
  32   1.0000     -10.012340      -272.4496
  33   1.0000     -10.012322      -272.4491
  34   1.0000     -10.012109      -272.4433
  35   1.0000     -10.010195      -272.3913
  36   1.0000     -10.010038      -272.3870
  37   1.0000     -10.006899      -272.3016
  38   1.0000     -10.006767      -272.2980
  39   1.0000      -9.999983      -272.1134
  40   1.0000      -9.999976      -272.1132
  41   1.0000      -9.999735      -272.1066
  42   1.0000      -9.999709      -272.1059
  43   1.0000      -9.999136      -272.0903
  44   1.0000      -9.999087      -272.0890
  45   1.0000      -9.998914      -272.0843
  46   1.0000      -9.998861      -272.0828
  47   1.0000      -3.386835       -92.1605
  48   1.0000      -2.218350       -60.3644
  49   1.0000      -2.208008       -60.0829
  50   1.0000      -2.176299       -59.2201
  51   1.0000      -0.978615       -26.6295
  52   1.0000      -0.977297       -26.5936
  53   1.0000      -0.969287       -26.3756
  54   1.0000      -0.959267       -26.1030
  55   1.0000      -0.957863       -26.0648
  56   1.0000      -0.954383       -25.9701
  57   1.0000      -0.953377       -25.9427
  58   1.0000      -0.949426       -25.8352
  59   1.0000      -0.827514       -22.5178
  60   1.0000      -0.817029       -22.2325
  61   1.0000      -0.816055       -22.2060
  62   1.0000      -0.804508       -21.8918
  63   1.0000      -0.799981       -21.7686
  64   1.0000      -0.788824       -21.4650
  65   1.0000      -0.788462       -21.4551
  66   1.0000      -0.782587       -21.2953
  67   1.0000      -0.776409       -21.1272
  68   1.0000      -0.776270       -21.1234
  69   1.0000      -0.773233       -21.0407
  70   1.0000      -0.756465       -20.5845
  71   1.0000      -0.755221       -20.5506
  72   1.0000      -0.753921       -20.5152
  73   1.0000      -0.731074       -19.8935
  74   1.0000      -0.719931       -19.5903
  75   1.0000      -0.719129       -19.5685
  76   1.0000      -0.675089       -18.3701
  77   1.0000      -0.675015       -18.3681
  78   1.0000      -0.666381       -18.1331
  79   1.0000      -0.664980       -18.0950
  80   1.0000      -0.630370       -17.1532
  81   1.0000      -0.629697       -17.1349
  82   1.0000      -0.622117       -16.9287
  83   1.0000      -0.605286       -16.4707
  84   1.0000      -0.603029       -16.4093
  85   1.0000      -0.601855       -16.3773
  86   1.0000      -0.600508       -16.3406
  87   1.0000      -0.588580       -16.0161
  88   1.0000      -0.585383       -15.9291
  89   1.0000      -0.577390       -15.7116
  90   1.0000      -0.572065       -15.5667
  91   1.0000      -0.559146       -15.2151
  92   1.0000      -0.557414       -15.1680
  93   1.0000      -0.553925       -15.0731
  94   1.0000      -0.552152       -15.0248
  95   1.0000      -0.548185       -14.9169
  96   1.0000      -0.531424       -14.4608
  97   1.0000      -0.530891       -14.4463
  98   1.0000      -0.525367       -14.2960
  99   1.0000      -0.522442       -14.2164
 100   1.0000      -0.521549       -14.1921
 101   1.0000      -0.520888       -14.1741
 102   1.0000      -0.515834       -14.0366
 103   1.0000      -0.509920       -13.8756
 104   1.0000      -0.496778       -13.5180
 105   1.0000      -0.494326       -13.4513
 106   1.0000      -0.491152       -13.3649
 107   1.0000      -0.490153       -13.3378
 108   1.0000      -0.482195       -13.1212
 109   1.0000      -0.480426       -13.0730
 110   1.0000      -0.479002       -13.0343
 111   1.0000      -0.469256       -12.7691
 112   1.0000      -0.465033       -12.6542
 113   1.0000      -0.463769       -12.6198
 114   1.0000      -0.463010       -12.5992
 115   1.0000      -0.462541       -12.5864
 116   1.0000      -0.462169       -12.5763
 117   1.0000      -0.461375       -12.5547
 118   1.0000      -0.459074       -12.4920
 119   1.0000      -0.458077       -12.4649
 120   1.0000      -0.453713       -12.3462
 121   1.0000      -0.448995       -12.2178
 122   1.0000      -0.447817       -12.1857
 123   1.0000      -0.443442       -12.0667
 124   1.0000      -0.439833       -11.9685
 125   1.0000      -0.437721       -11.9110
 126   1.0000      -0.436781       -11.8854
 127   1.0000      -0.435361       -11.8468
 128   1.0000      -0.434834       -11.8324
 129   1.0000      -0.428665       -11.6646
 130   1.0000      -0.424012       -11.5379
 131   1.0000      -0.417131       -11.3507
 132   1.0000      -0.416801       -11.3417
 133   1.0000      -0.410074       -11.1587
 134   1.0000      -0.409891       -11.1537
 135   1.0000      -0.409000       -11.1295
 136   1.0000      -0.408640       -11.1197
 137   1.0000      -0.396943       -10.8014
 138   1.0000      -0.392574       -10.6825
 139   1.0000      -0.391954       -10.6656
 140   1.0000      -0.389557       -10.6004
 141   1.0000      -0.370262       -10.0753
 142   1.0000      -0.367461        -9.9991
 143   1.0000      -0.362053        -9.8520
 144   1.0000      -0.345274        -9.3954
 145   1.0000      -0.344935        -9.3862
 146   1.0000      -0.338520        -9.2116
 147   1.0000      -0.338067        -9.1993
 148   1.0000      -0.337717        -9.1898
 149   1.0000      -0.326416        -8.8822
 150   1.0000      -0.315207        -8.5772
 151   1.0000      -0.308615        -8.3978
 152   1.0000      -0.296309        -8.0630
 153   1.0000      -0.288337        -7.8461
 154   1.0000      -0.282534        -7.6881
 155   1.0000      -0.280105        -7.6220
 156   1.0000      -0.275778        -7.5043
 157   1.0000      -0.271209        -7.3800
 158   1.0000      -0.268261        -7.2997
 159   0.0000      -0.192853        -5.2478
 160   0.0000      -0.192701        -5.2437
 161   0.0000      -0.182030        -4.9533
 162   0.0000      -0.173569        -4.7231
 163   0.0000      -0.145719        -3.9652

                 SPIN DOWN ORBITALS
  NO   OCC          E(Eh)            E(eV)
   0   1.0000    -254.933658     -6937.0975
   1   1.0000     -29.679966      -807.6329
   2   1.0000     -25.639369      -697.6827
   3   1.0000     -25.635084      -697.5661
   4   1.0000     -25.628181      -697.3783
   5   1.0000     -14.150895      -385.0654
   6   1.0000     -14.150478      -385.0541
   7   1.0000     -14.134494      -384.6191
   8   1.0000     -14.133835      -384.6012
   9   1.0000     -14.112423      -384.0186
  10   1.0000     -14.112364      -384.0169
  11   1.0000     -14.112216      -384.0129
  12   1.0000     -14.112130      -384.0106
  13   1.0000     -10.065005      -273.8827
  14   1.0000     -10.064435      -273.8672
  15   1.0000     -10.043569      -273.2994
  16   1.0000     -10.042723      -273.2764
  17   1.0000     -10.042703      -273.2759
  18   1.0000     -10.042225      -273.2628
  19   1.0000     -10.042125      -273.2601
  20   1.0000     -10.042112      -273.2598
  21   1.0000     -10.041594      -273.2457
  22   1.0000     -10.041459      -273.2420
  23   1.0000     -10.035305      -273.0745
  24   1.0000     -10.035290      -273.0741
  25   1.0000     -10.035141      -273.0701
  26   1.0000     -10.035090      -273.0687
  27   1.0000     -10.030832      -272.9528
  28   1.0000     -10.030778      -272.9513
  29   1.0000     -10.030723      -272.9498
  30   1.0000     -10.030662      -272.9482
  31   1.0000     -10.012537      -272.4550
  32   1.0000     -10.012261      -272.4475
  33   1.0000     -10.012256      -272.4473
  34   1.0000     -10.012035      -272.4413
  35   1.0000     -10.010274      -272.3934
  36   1.0000     -10.010119      -272.3892
  37   1.0000     -10.006908      -272.3018
  38   1.0000     -10.006776      -272.2982
  39   1.0000      -9.999796      -272.1083
  40   1.0000      -9.999774      -272.1077
  41   1.0000      -9.999540      -272.1013
  42   1.0000      -9.999517      -272.1007
  43   1.0000      -9.999197      -272.0920
  44   1.0000      -9.999144      -272.0905
  45   1.0000      -9.998965      -272.0857
  46   1.0000      -9.998924      -272.0845
  47   1.0000      -3.348626       -91.1207
  48   1.0000      -2.169850       -59.0446
  49   1.0000      -2.163942       -58.8839
  50   1.0000      -2.156978       -58.6943
  51   1.0000      -0.978031       -26.6136
  52   1.0000      -0.976714       -26.5777
  53   1.0000      -0.969262       -26.3750
  54   1.0000      -0.959360       -26.1055
  55   1.0000      -0.957965       -26.0675
  56   1.0000      -0.954283       -25.9674
  57   1.0000      -0.953301       -25.9406
  58   1.0000      -0.949515       -25.8376
  59   1.0000      -0.827547       -22.5187
  60   1.0000      -0.816741       -22.2247
  61   1.0000      -0.815780       -22.1985
  62   1.0000      -0.804488       -21.8912
  63   1.0000      -0.800059       -21.7707
  64   1.0000      -0.788714       -21.4620
  65   1.0000      -0.788360       -21.4524
  66   1.0000      -0.782502       -21.2930
  67   1.0000      -0.776396       -21.1268
  68   1.0000      -0.776200       -21.1215
  69   1.0000      -0.773142       -21.0383
  70   1.0000      -0.756543       -20.5866
  71   1.0000      -0.755116       -20.5478
  72   1.0000      -0.753820       -20.5125
  73   1.0000      -0.731056       -19.8930
  74   1.0000      -0.719860       -19.5884
  75   1.0000      -0.719069       -19.5669
  76   1.0000      -0.675153       -18.3718
  77   1.0000      -0.674957       -18.3665
  78   1.0000      -0.666194       -18.1281
  79   1.0000      -0.664823       -18.0907
  80   1.0000      -0.630175       -17.1479
  81   1.0000      -0.629511       -17.1299
  82   1.0000      -0.622052       -16.9269
  83   1.0000      -0.605253       -16.4698
  84   1.0000      -0.603013       -16.4088
  85   1.0000      -0.601878       -16.3779
  86   1.0000      -0.600550       -16.3418
  87   1.0000      -0.588350       -16.0098
  88   1.0000      -0.585204       -15.9242
  89   1.0000      -0.577387       -15.7115
  90   1.0000      -0.571894       -15.5620
  91   1.0000      -0.559185       -15.2162
  92   1.0000      -0.557327       -15.1656
  93   1.0000      -0.554044       -15.0763
  94   1.0000      -0.552251       -15.0275
  95   1.0000      -0.547891       -14.9089
  96   1.0000      -0.531513       -14.4632
  97   1.0000      -0.530849       -14.4451
  98   1.0000      -0.524872       -14.2825
  99   1.0000      -0.522302       -14.2126
 100   1.0000      -0.520761       -14.1706
 101   1.0000      -0.520184       -14.1549
 102   1.0000      -0.515726       -14.0336
 103   1.0000      -0.509807       -13.8726
 104   1.0000      -0.496648       -13.5145
 105   1.0000      -0.494172       -13.4471
 106   1.0000      -0.490951       -13.3594
 107   1.0000      -0.490131       -13.3371
 108   1.0000      -0.481883       -13.1127
 109   1.0000      -0.479085       -13.0366
 110   1.0000      -0.478594       -13.0232
 111   1.0000      -0.469138       -12.7659
 112   1.0000      -0.465011       -12.6536
 113   1.0000      -0.463769       -12.6198
 114   1.0000      -0.462860       -12.5951
 115   1.0000      -0.462374       -12.5818
 116   1.0000      -0.462014       -12.5720
 117   1.0000      -0.461049       -12.5458
 118   1.0000      -0.458903       -12.4874
 119   1.0000      -0.457842       -12.4585
 120   1.0000      -0.453646       -12.3443
 121   1.0000      -0.448980       -12.2174
 122   1.0000      -0.447528       -12.1779
 123   1.0000      -0.443186       -12.0597
 124   1.0000      -0.439810       -11.9678
 125   1.0000      -0.437788       -11.9128
 126   1.0000      -0.436709       -11.8835
 127   1.0000      -0.435397       -11.8478
 128   1.0000      -0.433216       -11.7884
 129   1.0000      -0.427737       -11.6393
 130   1.0000      -0.423588       -11.5264
 131   1.0000      -0.417261       -11.3542
 132   1.0000      -0.416827       -11.3424
 133   1.0000      -0.409855       -11.1527
 134   1.0000      -0.409016       -11.1299
 135   1.0000      -0.408492       -11.1156
 136   1.0000      -0.406326       -11.0567
 137   1.0000      -0.392812       -10.6890
 138   1.0000      -0.391452       -10.6519
 139   1.0000      -0.389750       -10.6056
 140   1.0000      -0.388922       -10.5831
 141   1.0000      -0.371069       -10.0973
 142   1.0000      -0.367589       -10.0026
 143   1.0000      -0.362276        -9.8580
 144   1.0000      -0.345021        -9.3885
 145   1.0000      -0.344861        -9.3841
 146   1.0000      -0.337806        -9.1922
 147   1.0000      -0.337169        -9.1748
 148   1.0000      -0.322273        -8.7695
 149   1.0000      -0.318702        -8.6723
 150   1.0000      -0.314860        -8.5678
 151   1.0000      -0.308252        -8.3880
 152   1.0000      -0.287838        -7.8325
 153   1.0000      -0.286927        -7.8077
 154   1.0000      -0.275504        -7.4969
 155   1.0000      -0.268685        -7.3113
 156   1.0000      -0.261884        -7.1262
 157   1.0000      -0.255994        -6.9659
 158   0.0000      -0.238341        -6.4856
 159   0.0000      -0.191994        -5.2244
 160   0.0000      -0.188999        -5.1429
 161   0.0000      -0.167642        -4.5618
 162   0.0000      -0.156239        -4.2515

MULLIKEN ATOMIC CHARGES AND SPIN POPULATIONS
--------------------------------------------
   0 Fe:    0.377152    0.981901
   1 N :   -0.192691   -0.020584
   2 N :   -0.193272   -0.020693
   3 N :   -0.140025   -0.024026
   4 N :   -0.263902    0.027119
   5 C :    0.136974   -0.007521
   6 C :    0.067768    0.010966
   7 C :    0.062946    0.010942
   8 C :    0.136493   -0.007663
   9 C :   -0.011500    0.017419
  10 C :   -0.004733   -0.005597
  11 C :   -0.002914   -0.006158
  12 C :   -0.010405    0.017000
  13 C :   -0.067914   -0.000365
  14 C :   -0.047923   -0.005922
  15 C :    0.125272    0.004362
  16 C :   -0.076625    0.005805
  17 C :    0.193524    0.006014
  18 C :   -0.074601    0.005366
  19 C :    0.127000    0.004472
  20 C :    0.057562   -0.001902
  21 C :    0.059120   -0.001905
  22 H :    0.016471   -0.000839
  23 H :   -0.003215   -0.000545
  24 H :   -0.003383   -0.000521
  25 H :    0.014149   -0.000853
  26 H :    0.061545    0.000033
  27 H :    0.066921    0.001848
  28 H :    0.066859    0.001801
  29 H :    0.061035    0.000028
  30 H :    0.066878    0.001796
  31 H :    0.065970    0.001865
  32 H :    0.000589    0.000043
  33 H :   -0.001610    0.000240
  34 N :   -0.191095   -0.020639
  35 N :   -0.193350   -0.020705
  36 N :   -0.146689   -0.022610
  37 C :   -0.067964   -0.000453
  38 C :    0.136434   -0.007578
  39 C :    0.137764   -0.007511
  40 C :    0.058910    0.010543
  41 C :    0.057652    0.010449
  42 C :    0.120946    0.004419
  43 C :    0.118827    0.004203
  44 H :    0.001318    0.000048
  45 C :   -0.011844    0.016417
  46 C :   -0.011017    0.016935
  47 C :   -0.002142   -0.005506
  48 C :   -0.040792   -0.005700
  49 C :   -0.003132   -0.006077
  50 C :   -0.072501    0.004737
  51 H :    0.022537   -0.000874
  52 C :   -0.078182    0.005647
  53 H :    0.024987   -0.000851
  54 H :   -0.001560    0.000234
  55 C :    0.195912    0.005958
  56 H :   -0.002801   -0.000472
  57 H :   -0.002212   -0.000523
  58 N :   -0.266647    0.025968
  59 C :    0.057560   -0.001787
  60 C :    0.065793   -0.001791
  61 H :    0.061241    0.000068
  62 H :    0.064242    0.002050
  63 H :    0.068319    0.001347
  64 H :    0.060679    0.000027
  65 H :    0.068776    0.001509
  66 H :    0.058491    0.001931
  67 H :    0.007091   -0.000838
  68 H :    0.003733   -0.000034
  69 H :    0.003122   -0.000009
  70 H :    0.007243   -0.000817
  71 H :    0.006939   -0.000790
  72 H :    0.007256   -0.000814
  73 H :    0.003444   -0.000035
  74 H :    0.003197   -0.000005
Sum of atomic charges         :    1.0000000

LOEWDIN ATOMIC CHARGES AND SPIN POPULATIONS
-------------------------------------------
   0 Fe:    0.123060    0.932010
   1 N :   -0.033469   -0.011982
   2 N :   -0.033037   -0.012248
   3 N :    0.018515   -0.013552
   4 N :    0.000559    0.025727
   5 C :    0.005606   -0.005259
   6 C :   -0.001467    0.007890
   7 C :   -0.003102    0.007777
   8 C :    0.005737   -0.005413
   9 C :   -0.021539    0.013532
  10 C :   -0.031663   -0.003228
  11 C :   -0.031661   -0.003685
  12 C :   -0.021241    0.013162
  13 C :   -0.034374   -0.001006
  14 C :   -0.060022   -0.003880
  15 C :    0.054516    0.003699
  16 C :   -0.071530    0.005523
  17 C :    0.042377    0.005830
  18 C :   -0.071120    0.005189
  19 C :    0.054102    0.003782
  20 C :    0.025472   -0.000402
  21 C :    0.025766   -0.000402
  22 H :    0.036382   -0.000150
  23 H :    0.040411   -0.000129
  24 H :    0.040466   -0.000129
  25 H :    0.036053   -0.000141
  26 H :    0.040546    0.000000
  27 H :    0.036571    0.001365
  28 H :    0.037176    0.001298
  29 H :    0.040432   -0.000004
  30 H :    0.036295    0.001313
  31 H :    0.037149    0.001354
  32 H :    0.046880    0.000008
  33 H :    0.046434    0.000033
  34 N :   -0.033305   -0.012092
  35 N :   -0.033981   -0.012307
  36 N :    0.015198   -0.012405
  37 C :   -0.034198   -0.001086
  38 C :    0.005247   -0.005379
  39 C :    0.006167   -0.005273
  40 C :   -0.003000    0.007499
  41 C :   -0.004051    0.007383
  42 C :    0.053883    0.003782
  43 C :    0.054680    0.003564
  44 H :    0.047176    0.000009
  45 C :   -0.021930    0.012699
  46 C :   -0.021113    0.013145
  47 C :   -0.031107   -0.003207
  48 C :   -0.061120   -0.003758
  49 C :   -0.031658   -0.003672
  50 C :   -0.070682    0.004656
  51 H :    0.036405   -0.000164
  52 C :   -0.071761    0.005358
  53 H :    0.037051   -0.000187
  54 H :    0.046510    0.000034
  55 C :    0.043457    0.005734
  56 H :    0.040421   -0.000119
  57 H :    0.040352   -0.000122
  58 N :   -0.001490    0.024640
  59 C :    0.025831   -0.000364
  60 C :    0.027454   -0.000371
  61 H :    0.040212    0.000030
  62 H :    0.035414    0.001492
  63 H :    0.037257    0.000980
  64 H :    0.040536   -0.000002
  65 H :    0.037340    0.001117
  66 H :    0.035062    0.001392
  67 H :    0.037533   -0.000073
  68 H :    0.036787   -0.000151
  69 H :    0.036771   -0.000152
  70 H :    0.037633   -0.000072
  71 H :    0.037447   -0.000071
  72 H :    0.037637   -0.000071
  73 H :    0.036874   -0.000151
  74 H :    0.036780   -0.000149

  Mayer bond orders larger than 0.1
B(  0-Fe,  1-N ) :   0.6998 B(  0-Fe,  2-N ) :   0.7000 B(  0-Fe,  3-N ) :   0.6567
B(  0-Fe, 34-N ) :   0.6985 B(  0-Fe, 35-N ) :   0.6962 B(  0-Fe, 36-N ) :   0.6452
B(  1-N ,  5-C ) :   1.2274 B(  1-N ,  6-C ) :   1.2539 B(  2-N ,  7-C ) :   1.2533
B(  2-N ,  8-C ) :   1.2273 B(  3-N , 15-C ) :   1.2944 B(  3-N , 19-C ) :   1.2915
B(  4-N , 17-C ) :   1.2769 B(  4-N , 20-C ) :   0.9901 B(  4-N , 21-C ) :   0.9902
B(  5-C ,  9-C ) :   1.1239 B(  5-C , 13-C ) :   1.3114 B(  6-C , 10-C ) :   1.1334
B(  6-C , 14-C ) :   1.2816 B(  7-C , 11-C ) :   1.1322 B(  7-C , 14-C ) :   1.2814
B(  8-C , 12-C ) :   1.1229 B(  8-C , 37-C ) :   1.3115 B(  9-C , 10-C ) :   1.4759
B(  9-C , 67-H ) :   1.0041 B( 10-C , 68-H ) :   1.0071 B( 11-C , 12-C ) :   1.4770
B( 11-C , 69-H ) :   1.0076 B( 12-C , 70-H ) :   1.0040 B( 13-C , 32-H ) :   0.9485
B( 13-C , 38-C ) :   1.3122 B( 14-C , 33-H ) :   0.9610 B( 15-C , 16-C ) :   1.5188
B( 15-C , 22-H ) :   0.9301 B( 16-C , 17-C ) :   1.2413 B( 16-C , 23-H ) :   0.9640
B( 17-C , 18-C ) :   1.2403 B( 18-C , 19-C ) :   1.5212 B( 18-C , 24-H ) :   0.9638
B( 19-C , 25-H ) :   0.9280 B( 20-C , 26-H ) :   0.9616 B( 20-C , 27-H ) :   0.9589
B( 20-C , 28-H ) :   0.9593 B( 21-C , 29-H ) :   0.9617 B( 21-C , 30-H ) :   0.9574
B( 21-C , 31-H ) :   0.9608 B( 34-N , 39-C ) :   1.2271 B( 34-N , 40-C ) :   1.2549
B( 35-N , 38-C ) :   1.2267 B( 35-N , 41-C ) :   1.2547 B( 36-N , 42-C ) :   1.2929
B( 36-N , 43-C ) :   1.2983 B( 37-C , 39-C ) :   1.3113 B( 37-C , 44-H ) :   0.9487
B( 38-C , 45-C ) :   1.1235 B( 39-C , 46-C ) :   1.1232 B( 40-C , 47-C ) :   1.1332
B( 40-C , 48-C ) :   1.2795 B( 41-C , 48-C ) :   1.2788 B( 41-C , 49-C ) :   1.1341
B( 42-C , 50-C ) :   1.5176 B( 42-C , 51-H ) :   0.9331 B( 43-C , 52-C ) :   1.5171
B( 43-C , 53-H ) :   0.9356 B( 45-C , 49-C ) :   1.4751 B( 45-C , 71-H ) :   1.0041
B( 46-C , 47-C ) :   1.4756 B( 46-C , 72-H ) :   1.0042 B( 47-C , 73-H ) :   1.0075
B( 48-C , 54-H ) :   0.9618 B( 49-C , 74-H ) :   1.0075 B( 50-C , 55-C ) :   1.2422
B( 50-C , 56-H ) :   0.9649 B( 52-C , 55-C ) :   1.2437 B( 52-C , 57-H ) :   0.9639
B( 55-C , 58-N ) :   1.2722 B( 58-N , 59-C ) :   0.9899 B( 58-N , 60-C ) :   0.9888
B( 59-C , 61-H ) :   0.9621 B( 59-C , 62-H ) :   0.9617 B( 59-C , 63-H ) :   0.9568
B( 60-C , 64-H ) :   0.9627 B( 60-C , 65-H ) :   0.9590 B( 60-C , 66-H ) :   0.9602

FINAL SINGLE POINT ENERGY     -3015.396295418148

DIPOLE MOMENT
-------------
                                X             Y             Z
Electronic contribution:     -1.65731       0.10353       0.32427
Nuclear contribution   :      1.83470      -0.09780      -0.38693
                        -----------------------------------------
Total Dipole Moment    :      0.17738       0.00574      -0.06267
                        -----------------------------------------
Magnitude (a.u.)       :      0.18822
Magnitude (Debye)      :      0.47841

Rotational constants in cm-1:     0.004197     0.002175     0.002090
Rotational constants in MHz :   125.835671    65.190757    62.654453

                             ****ORCA TERMINATED NORMALLY****
TOTAL RUN TIME: 0 days 0 hours 6 minutes 33 seconds 87 msec
