                         Program Version 4.1.2  - RELEASE  -
|  1> ! bp86 def2-svp
|  2>
|  3> * xyzfile  1 2 geom.xyz
|  4>
|  5> %eprnmr
|  6> nuclei = all Fe {fgrad, rho}
|  7> end
|  8>
|  9>
| 10>                          ****END OF INPUT****

CARTESIAN COORDINATES (ANGSTROEM)
---------------------------------
  Fe     0.022934   -0.015741    0.001763
  N      2.001882   -0.168113   -0.406410
  H      2.466331    0.303514    0.374597
  N     -0.031051   -1.547153    1.335126
  H      0.306429   -1.067000    2.176633
  N      0.422904    1.087192    1.571240
  N      0.936171    2.169091    1.712859
  N      1.415196    3.208288    1.923100
  C      2.308956    0.621958   -1.639286
  H      2.009045    0.020683   -2.501180
  H      3.382152    0.827744   -1.705455
  C      2.548760   -1.561539   -0.447329
  H      3.623433   -1.505097   -0.656914
  H      2.054710   -2.078051   -1.273675
  C      2.310620   -2.297055    0.871961
  H      2.661812   -1.690517    1.717555
  H      2.924541   -3.203495    0.864077
  C      0.861739   -2.724773    1.107631
  H      0.477072   -3.280429    0.247669
  H      0.810754   -3.372470    1.990460
  C     -1.455480   -1.926505    1.589333
  H     -1.540972   -2.492222    2.522788
  H     -1.784685   -2.565878    0.766310
  C      1.501896    1.906113   -1.565698
  N      0.076842    1.520762   -1.325150
  N     -1.959544    0.137464    0.405761
  H     -2.438690   -0.332712   -0.366894
  C     -2.264284   -0.643422    1.646780
  H     -1.964734   -0.033304    2.502275
  H     -3.337159   -0.849725    1.714961
  N     -0.348262   -1.139014   -1.561295
  N     -1.180131   -2.000815   -1.721108
  N     -1.950972   -2.840167   -1.952411
  C     -2.508184    1.531197    0.440942
  H     -3.581675    1.474561    0.654958
  H     -2.014882    2.051719    1.264981
  C     -2.274665    2.259171   -0.883084
  H     -2.623735    1.645942   -1.724858
  H     -2.892097    3.163392   -0.880571
  C     -0.828368    2.693499   -1.119976
  H     -0.245093    1.032794   -2.168264
  H     -0.455811    3.270520   -0.269553
  H      1.590062    2.488853   -2.488312
  H      1.826457    2.529027   -0.728275
  H     -0.778775    3.328033   -2.012219

 Total Charge           Charge          ....    1
 Multiplicity           Mult            ....    2
 Number of Electrons    NEL             ....  179
 Basis Dimension        Dim             ....  431

ORBITAL ENERGIES
----------------
                 SPIN UP ORBITALS
  NO   OCC          E(Eh)            E(eV)
   0   1.0000    -254.953243     -6937.6304
   1   1.0000     -29.713404      -808.5428
   2   1.0000     -25.669832      -698.5116
   3   1.0000     -25.668123      -698.4651
   4   1.0000     -25.653156      -698.0579
   5   1.0000     -14.264594      -388.1593
   6   1.0000     -14.262671      -388.1070
   7   1.0000     -14.202358      -386.4658
   8   1.0000     -14.200532      -386.4161
   9   1.0000     -14.196308      -386.3012
  10   1.0000     -14.195281      -386.2732
  11   1.0000     -14.157016      -385.2320
  12   1.0000     -14.153931      -385.1481
  13   1.0000     -14.148124      -384.9900
  14   1.0000     -14.146736      -384.9522
  15   1.0000     -10.089717      -274.5551
  16   1.0000     -10.089618      -274.5525
  17   1.0000     -10.089409      -274.5468
  18   1.0000     -10.088895      -274.5328
  19   1.0000     -10.084351      -274.4092
  20   1.0000     -10.083868      -274.3960
  21   1.0000     -10.083675      -274.3908
  22   1.0000     -10.082518      -274.3593
  23   1.0000     -10.057804      -273.6868
  24   1.0000     -10.056882      -273.6617
  25   1.0000      -3.411443       -92.8301
  26   1.0000      -2.239943       -60.9519
  27   1.0000      -2.235125       -60.8209
  28   1.0000      -2.204965       -60.0001
  29   1.0000      -1.127800       -30.6890
  30   1.0000      -1.125582       -30.6286
  31   1.0000      -1.011181       -27.5156
  32   1.0000      -1.000929       -27.2367
  33   1.0000      -0.984771       -26.7970
  34   1.0000      -0.975998       -26.5583
  35   1.0000      -0.974308       -26.5123
  36   1.0000      -0.973964       -26.5029
  37   1.0000      -0.867851       -23.6154
  38   1.0000      -0.837278       -22.7835
  39   1.0000      -0.824413       -22.4334
  40   1.0000      -0.783379       -21.3168
  41   1.0000      -0.748021       -20.3547
  42   1.0000      -0.728179       -19.8148
  43   1.0000      -0.708558       -19.2808
  44   1.0000      -0.703061       -19.1313
  45   1.0000      -0.686421       -18.6785
  46   1.0000      -0.677020       -18.4227
  47   1.0000      -0.622273       -16.9329
  48   1.0000      -0.613196       -16.6859
  49   1.0000      -0.603801       -16.4303
  50   1.0000      -0.601805       -16.3760
  51   1.0000      -0.595849       -16.2139
  52   1.0000      -0.579903       -15.7800
  53   1.0000      -0.579079       -15.7575
  54   1.0000      -0.570797       -15.5322
  55   1.0000      -0.562836       -15.3156
  56   1.0000      -0.561318       -15.2742
  57   1.0000      -0.554681       -15.0936
  58   1.0000      -0.551513       -15.0074
  59   1.0000      -0.550060       -14.9679
  60   1.0000      -0.547630       -14.9018
  61   1.0000      -0.542766       -14.7694
  62   1.0000      -0.535065       -14.5599
  63   1.0000      -0.527773       -14.3614
  64   1.0000      -0.516302       -14.0493
  65   1.0000      -0.515547       -14.0288
  66   1.0000      -0.512276       -13.9397
  67   1.0000      -0.492074       -13.3900
  68   1.0000      -0.491509       -13.3746
  69   1.0000      -0.477468       -12.9926
  70   1.0000      -0.476235       -12.9590
  71   1.0000      -0.473584       -12.8869
  72   1.0000      -0.471718       -12.8361
  73   1.0000      -0.461012       -12.5448
  74   1.0000      -0.460470       -12.5300
  75   1.0000      -0.457440       -12.4476
  76   1.0000      -0.449374       -12.2281
  77   1.0000      -0.447382       -12.1739
  78   1.0000      -0.446141       -12.1401
  79   1.0000      -0.432685       -11.7740
  80   1.0000      -0.420923       -11.4539
  81   1.0000      -0.404688       -11.0121
  82   1.0000      -0.395881       -10.7725
  83   1.0000      -0.376002       -10.2315
  84   1.0000      -0.362830        -9.8731
  85   1.0000      -0.335971        -9.1422
  86   1.0000      -0.332794        -9.0558
  87   1.0000      -0.314511        -8.5583
  88   1.0000      -0.309587        -8.4243
  89   1.0000      -0.302526        -8.2321
  90   0.0000      -0.226905        -6.1744
  91   0.0000      -0.213323        -5.8048
  92   0.0000      -0.128402        -3.4940
  93   0.0000      -0.124010        -3.3745
  94   0.0000      -0.122219        -3.3258

                 SPIN DOWN ORBITALS
  NO   OCC          E(Eh)            E(eV)
   0   1.0000    -254.953101     -6937.6266
   1   1.0000     -29.698418      -808.1350
   2   1.0000     -25.655285      -698.1158
   3   1.0000     -25.654417      -698.0922
   4   1.0000     -25.647433      -697.9021
   5   1.0000     -14.264856      -388.1665
   6   1.0000     -14.262944      -388.1144
   7   1.0000     -14.202673      -386.4744
   8   1.0000     -14.200861      -386.4251
   9   1.0000     -14.196646      -386.3104
  10   1.0000     -14.195617      -386.2824
  11   1.0000     -14.155429      -385.1888
  12   1.0000     -14.152374      -385.1057
  13   1.0000     -14.147387      -384.9700
  14   1.0000     -14.145985      -384.9318
  15   1.0000     -10.089732      -274.5556
  16   1.0000     -10.089633      -274.5529
  17   1.0000     -10.089427      -274.5473
  18   1.0000     -10.088912      -274.5333
  19   1.0000     -10.084336      -274.4087
  20   1.0000     -10.083864      -274.3959
  21   1.0000     -10.083669      -274.3906
  22   1.0000     -10.082506      -274.3589
  23   1.0000     -10.057810      -273.6869
  24   1.0000     -10.056888      -273.6618
  25   1.0000      -3.376601       -91.8820
  26   1.0000      -2.195962       -59.7552
  27   1.0000      -2.194202       -59.7073
  28   1.0000      -2.187868       -59.5349
  29   1.0000      -1.126632       -30.6572
  30   1.0000      -1.124430       -30.5973
  31   1.0000      -1.011429       -27.5224
  32   1.0000      -1.001297       -27.2467
  33   1.0000      -0.985101       -26.8060
  34   1.0000      -0.974375       -26.5141
  35   1.0000      -0.973913       -26.5015
  36   1.0000      -0.972241       -26.4560
  37   1.0000      -0.867892       -23.6165
  38   1.0000      -0.837370       -22.7860
  39   1.0000      -0.824509       -22.4360
  40   1.0000      -0.783460       -21.3190
  41   1.0000      -0.748094       -20.3567
  42   1.0000      -0.728325       -19.8187
  43   1.0000      -0.708616       -19.2824
  44   1.0000      -0.703100       -19.1323
  45   1.0000      -0.686315       -18.6756
  46   1.0000      -0.677072       -18.4241
  47   1.0000      -0.622086       -16.9278
  48   1.0000      -0.613383       -16.6910
  49   1.0000      -0.603610       -16.4251
  50   1.0000      -0.601883       -16.3781
  51   1.0000      -0.595262       -16.1979
  52   1.0000      -0.579465       -15.7680
  53   1.0000      -0.578943       -15.7538
  54   1.0000      -0.570583       -15.5264
  55   1.0000      -0.562294       -15.3008
  56   1.0000      -0.560705       -15.2576
  57   1.0000      -0.554202       -15.0806
  58   1.0000      -0.550055       -14.9678
  59   1.0000      -0.549198       -14.9444
  60   1.0000      -0.546292       -14.8654
  61   1.0000      -0.542086       -14.7509
  62   1.0000      -0.535083       -14.5603
  63   1.0000      -0.527990       -14.3673
  64   1.0000      -0.515889       -14.0381
  65   1.0000      -0.515167       -14.0184
  66   1.0000      -0.512280       -13.9398
  67   1.0000      -0.492011       -13.3883
  68   1.0000      -0.491385       -13.3713
  69   1.0000      -0.476483       -12.9658
  70   1.0000      -0.475822       -12.9478
  71   1.0000      -0.471625       -12.8336
  72   1.0000      -0.469702       -12.7812
  73   1.0000      -0.461047       -12.5457
  74   1.0000      -0.460027       -12.5180
  75   1.0000      -0.456965       -12.4346
  76   1.0000      -0.449078       -12.2200
  77   1.0000      -0.447353       -12.1731
  78   1.0000      -0.446161       -12.1407
  79   1.0000      -0.431389       -11.7387
  80   1.0000      -0.416849       -11.3430
  81   1.0000      -0.404828       -11.0159
  82   1.0000      -0.396556       -10.7908
  83   1.0000      -0.359504        -9.7826
  84   1.0000      -0.344660        -9.3787
  85   1.0000      -0.334995        -9.1157
  86   1.0000      -0.326148        -8.8750
  87   1.0000      -0.298021        -8.1096
  88   1.0000      -0.287342        -7.8190
  89   0.0000      -0.262944        -7.1551
  90   0.0000      -0.214904        -5.8478
  91   0.0000      -0.196840        -5.3563
  92   0.0000      -0.127526        -3.4702
  93   0.0000      -0.122837        -3.3426

MULLIKEN ATOMIC CHARGES AND SPIN POPULATIONS
--------------------------------------------
   0 Fe:    0.219100    0.891697
   1 N :   -0.260043   -0.020125
   2 H :    0.164443    0.003049
   3 N :   -0.248698   -0.019849
   4 H :    0.165480    0.002092
   5 N :   -0.370734    0.020743
   6 N :    0.308354   -0.011634
   7 N :   -0.254284    0.085385
   8 C :    0.079502   -0.000499
   9 H :    0.069384   -0.000110
  10 H :    0.071817   -0.001175
  11 C :    0.079406   -0.000000
  12 H :    0.057418   -0.001016
  13 H :    0.062391    0.000527
  14 C :   -0.029586   -0.000419
  15 H :    0.048841    0.000429
  16 H :    0.069207    0.000043
  17 C :    0.068682   -0.000005
  18 H :    0.060226   -0.000038
  19 H :    0.058504   -0.001077
  20 C :    0.060994   -0.000890
  21 H :    0.069400   -0.001271
  22 H :    0.064109   -0.000073
  23 C :    0.061645   -0.000867
  24 N :   -0.247477   -0.019903
  25 N :   -0.266377   -0.019316
  26 H :    0.165902    0.001445
  27 C :    0.080964   -0.000490
  28 H :    0.068053   -0.000154
  29 H :    0.072546   -0.001166
  30 N :   -0.361359    0.019361
  31 N :    0.302350   -0.010679
  32 N :   -0.255962    0.086725
  33 C :    0.072778    0.000184
  34 H :    0.059126   -0.000940
  35 H :    0.062143    0.000250
  36 C :   -0.026976   -0.000395
  37 H :    0.049588    0.000312
  38 H :    0.070676    0.000041
  39 C :    0.061831   -0.000017
  40 H :    0.164287    0.002211
  41 H :    0.060064    0.000340
  42 H :    0.069567   -0.001253
  43 H :    0.063793   -0.000396
  44 H :    0.058925   -0.001071
Sum of atomic charges         :    1.0000000

LOEWDIN ATOMIC CHARGES AND SPIN POPULATIONS
-------------------------------------------
   0 Fe:    0.008340    0.852170
   1 N :    0.056906   -0.013139
   2 H :    0.086147    0.001644
   3 N :    0.052907   -0.013827
   4 H :    0.081476    0.000824
   5 N :   -0.271211    0.030788
   6 N :    0.156756   -0.004867
   7 N :   -0.164804    0.077777
   8 C :    0.032588   -0.000840
   9 H :    0.042670   -0.000103
  10 H :    0.043135   -0.000849
  11 C :    0.035142    0.000208
  12 H :    0.036451   -0.000753
  13 H :    0.038277    0.000012
  14 C :   -0.047057   -0.000298
  15 H :    0.037967    0.000176
  16 H :    0.059800    0.000049
  17 C :    0.034614   -0.000084
  18 H :    0.038530   -0.000151
  19 H :    0.037592   -0.000822
  20 C :    0.029523   -0.000870
  21 H :    0.043075   -0.000896
  22 H :    0.034978   -0.000104
  23 C :    0.030256   -0.000900
  24 N :    0.052473   -0.013851
  25 N :    0.055129   -0.012826
  26 H :    0.085487    0.000675
  27 C :    0.033242   -0.000832
  28 H :    0.041915   -0.000109
  29 H :    0.043616   -0.000834
  30 N :   -0.266839    0.029688
  31 N :    0.153747   -0.004328
  32 N :   -0.162576    0.079038
  33 C :    0.035362    0.000312
  34 H :    0.037296   -0.000688
  35 H :    0.038789   -0.000095
  36 C :   -0.047109   -0.000287
  37 H :    0.037972    0.000107
  38 H :    0.060595    0.000047
  39 C :    0.033398   -0.000141
  40 H :    0.080527    0.000867
  41 H :    0.036611    0.000041
  42 H :    0.042871   -0.000887
  43 H :    0.035259   -0.000220
  44 H :    0.038178   -0.000822

  Mayer bond orders larger than 0.1
B(  0-Fe,  1-N ) :   0.6263 B(  0-Fe,  3-N ) :   0.6285 B(  0-Fe,  5-N ) :   0.8486
B(  0-Fe,  7-N ) :   0.1412 B(  0-Fe, 24-N ) :   0.6334 B(  0-Fe, 25-N ) :   0.6268
B(  0-Fe, 30-N ) :   0.8523 B(  0-Fe, 32-N ) :   0.1437 B(  1-N ,  2-H ) :   0.8920
B(  1-N ,  8-C ) :   0.9490 B(  1-N , 11-C ) :   0.9378 B(  3-N ,  4-H ) :   0.8748
B(  3-N , 17-C ) :   0.9507 B(  3-N , 20-C ) :   0.9503 B(  5-N ,  6-N ) :   1.5069
B(  5-N ,  7-N ) :   0.5131 B(  6-N ,  7-N ) :   1.8625 B(  8-C ,  9-H ) :   0.9308
B(  8-C , 10-H ) :   0.9348 B(  8-C , 23-C ) :   1.0772 B( 11-C , 12-H ) :   0.9326
B( 11-C , 13-H ) :   0.9309 B( 11-C , 14-C ) :   1.0898 B( 14-C , 15-H ) :   0.9360
B( 14-C , 16-H ) :   0.9136 B( 14-C , 17-C ) :   1.0861 B( 17-C , 18-H ) :   0.9390
B( 17-C , 19-H ) :   0.9343 B( 20-C , 21-H ) :   0.9335 B( 20-C , 22-H ) :   0.9317
B( 20-C , 27-C ) :   1.0793 B( 23-C , 24-N ) :   0.9480 B( 23-C , 42-H ) :   0.9343
B( 23-C , 43-H ) :   0.9330 B( 24-N , 39-C ) :   0.9520 B( 24-N , 40-H ) :   0.8729
B( 25-N , 26-H ) :   0.8920 B( 25-N , 27-C ) :   0.9465 B( 25-N , 33-C ) :   0.9372
B( 27-C , 28-H ) :   0.9305 B( 27-C , 29-H ) :   0.9346 B( 30-N , 31-N ) :   1.4924
B( 30-N , 32-N ) :   0.5149 B( 31-N , 32-N ) :   1.8585 B( 33-C , 34-H ) :   0.9323
B( 33-C , 35-H ) :   0.9348 B( 33-C , 36-C ) :   1.0878 B( 36-C , 37-H ) :   0.9360
B( 36-C , 38-H ) :   0.9131 B( 36-C , 39-C ) :   1.0846 B( 39-C , 41-H ) :   0.9358
B( 39-C , 44-H ) :   0.9342

FINAL SINGLE POINT ENERGY     -2205.957371288759

DIPOLE MOMENT
-------------
                                X             Y             Z
Electronic contribution:     -0.43737       0.29166      -0.02405
Nuclear contribution   :      0.60875      -0.42615       0.02012
                        -----------------------------------------
Total Dipole Moment    :      0.17138      -0.13449      -0.00393
                        -----------------------------------------
Magnitude (a.u.)       :      0.21789
Magnitude (Debye)      :      0.55384

Rotational constants in cm-1:     0.012267     0.010539     0.008992
Rotational constants in MHz :   367.769099   315.955498   269.582638

                             ****ORCA TERMINATED NORMALLY****
TOTAL RUN TIME: 0 days 0 hours 2 minutes 26 seconds 477 msec
